<?xml version="1.0" encoding="UTF-8"?>

<!-- generated on 2022-02-21 10:59:42 by Eclipse SUMO sumo Version 1.10.0
<configuration xmlns:xsi="http://www.w3.org/2001/XMLSchema-instance" xsi:noNamespaceSchemaLocation="http://sumo.dlr.de/xsd/sumoConfiguration.xsd">

    <input>
        <net-file value="static/_8c5129e3-9f38-433e-951f-13a89adf774f/47/14/../../../../input_files/network/sumo-grid-network-od132.net.xml"/>
        <route-files value="static/_8c5129e3-9f38-433e-951f-13a89adf774f/47/14/trips_014.rou.xml"/>
        <additional-files value="static/_8c5129e3-9f38-433e-951f-13a89adf774f/47/14/dua_dump_014.add.xml"/>
    </input>

    <output>
        <vehroute-output value="static/_8c5129e3-9f38-433e-951f-13a89adf774f/47/14/vehRoutes.veh.xml"/>
        <vehroute-output.exit-times value="true"/>
        <vehroute-output.last-route value="true"/>
        <vehroute-output.sorted value="true"/>
        <vehroute-output.write-unfinished value="true"/>
    </output>

    <time>
        <begin value="0.0"/>
        <end value="4500.0"/>
    </time>

    <processing>
        <route-steps value="200"/>
        <no-internal-links value="false"/>
        <time-to-teleport value="4500.0"/>
        <time-to-teleport.highways value="0"/>
        <max-depart-delay value="4500"/>
        <eager-insert value="false"/>
        <default.speeddev value="0"/>
        <pedestrian.model value="nonInteracting"/>
    </processing>

    <report>
        <verbose value="true"/>
        <xml-validation value="never"/>
        <xml-validation.routes value="never"/>
        <no-warnings value="false"/>
        <log value="static/_8c5129e3-9f38-433e-951f-13a89adf774f/47/14/iteration_014.sumo.log"/>
        <no-step-log value="true"/>
    </report>

    <mesoscopic>
        <mesosim value="true"/>
        <meso-junction-control value="true"/>
        <meso-recheck value="0"/>
    </mesoscopic>

    <random_number>
        <random value="false"/>
    </random_number>

</configuration>
-->

<routes xmlns:xsi="http://www.w3.org/2001/XMLSchema-instance" xsi:noNamespaceSchemaLocation="http://sumo.dlr.de/xsd/routes_file.xsd">
    <vehicle id="0.0" depart="0.00" departLane="free" departSpeed="55.57" fromTaz="taz_0" toTaz="taz_1" arrival="137.00">
        <route edges="1_7 7_8 8_2" exitTimes="9.00 129.00 137.00"/>
    </vehicle>

    <vehicle id="100.0" depart="0.00" departLane="free" departSpeed="55.56" fromTaz="taz_9" toTaz="taz_1" arrival="631.00">
        <route edges="32_26 26_20 20_14 14_8 8_2" exitTimes="9.00 137.00 205.00 623.00 631.00"/>
    </vehicle>

    <vehicle id="11.0" depart="0.00" departLane="free" departSpeed="55.57" fromTaz="taz_1" toTaz="taz_0" arrival="141.00">
        <route edges="2_8 8_7 7_1" exitTimes="8.00 132.00 141.00"/>
    </vehicle>

    <vehicle id="110.0" depart="0.00" departLane="free" departSpeed="55.56" fromTaz="taz_10" toTaz="taz_0" arrival="656.00">
        <route edges="33_27 27_21 21_15 15_9 9_8 8_7 7_1" exitTimes="9.00 107.00 247.00 446.00 526.00 647.00 656.00"/>
    </vehicle>

    <vehicle id="121.0" depart="0.00" departLane="free" departSpeed="55.55" fromTaz="taz_11" toTaz="taz_0" arrival="902.00">
        <route edges="34_28 28_27 27_21 21_15 15_9 9_8 8_7 7_1" exitTimes="9.00 90.00 188.00 328.00 571.00 773.00 893.00 902.00"/>
    </vehicle>

    <vehicle id="22.0" depart="0.00" departLane="free" departSpeed="55.57" fromTaz="taz_2" toTaz="taz_0" arrival="160.00">
        <route edges="3_9 9_8 8_7 7_1" exitTimes="9.00 31.00 151.00 160.00"/>
    </vehicle>

    <vehicle id="33.0" depart="0.00" departLane="free" departSpeed="55.57" fromTaz="taz_3" toTaz="taz_0" arrival="286.00">
        <route edges="4_10 10_9 9_8 8_7 7_1" exitTimes="9.00 117.00 154.00 277.00 286.00"/>
    </vehicle>

    <vehicle id="44.0" depart="0.00" departLane="free" departSpeed="55.56" fromTaz="taz_4" toTaz="taz_0" arrival="60.00">
        <route edges="12_13 13_7 7_1" exitTimes="9.00 51.00 60.00"/>
    </vehicle>

    <vehicle id="55.0" depart="0.00" departLane="free" departSpeed="55.57" fromTaz="taz_5" toTaz="taz_0" arrival="391.00">
        <route edges="17_16 16_10 10_9 9_8 8_7 7_1" exitTimes="9.00 86.00 194.00 263.00 382.00 391.00"/>
    </vehicle>

    <vehicle id="66.0" depart="0.00" departLane="free" departSpeed="55.55" fromTaz="taz_6" toTaz="taz_0" arrival="214.00">
        <route edges="18_19 19_13 13_7 7_1" exitTimes="9.00 162.00 205.00 214.00"/>
    </vehicle>

    <vehicle id="77.0" depart="0.00" departLane="free" departSpeed="55.55" fromTaz="taz_7" toTaz="taz_0" arrival="528.00">
        <route edges="23_22 22_16 16_15 15_9 9_8 8_7 7_1" exitTimes="9.00 104.00 214.00 315.00 399.00 519.00 528.00"/>
    </vehicle>

    <vehicle id="88.0" depart="0.00" departLane="free" departSpeed="55.56" fromTaz="taz_8" toTaz="taz_0" arrival="308.00">
        <route edges="31_25 25_19 19_13 13_7 7_1" exitTimes="9.00 108.00 257.00 299.00 308.00"/>
    </vehicle>

    <vehicle id="1.0" depart="2.00" departLane="free" departSpeed="55.57" fromTaz="taz_0" toTaz="taz_2" arrival="162.00">
        <route edges="1_7 7_8 8_9 9_3" exitTimes="11.00 131.00 153.00 162.00"/>
    </vehicle>

    <vehicle id="101.0" depart="2.00" departLane="free" departSpeed="55.56" fromTaz="taz_9" toTaz="taz_2" arrival="656.00">
        <route edges="32_26 26_20 20_14 14_8 8_9 9_3" exitTimes="11.00 139.00 207.00 625.00 647.00 656.00"/>
    </vehicle>

    <vehicle id="111.0" depart="2.00" departLane="free" departSpeed="55.56" fromTaz="taz_10" toTaz="taz_1" arrival="573.00">
        <route edges="33_27 27_21 21_15 15_9 9_8 8_2" exitTimes="11.00 109.00 249.00 489.00 565.00 573.00"/>
    </vehicle>

    <vehicle id="12.0" depart="2.00" departLane="free" departSpeed="55.57" fromTaz="taz_1" toTaz="taz_2" arrival="41.00">
        <route edges="2_8 8_9 9_3" exitTimes="10.00 32.00 41.00"/>
    </vehicle>

    <vehicle id="122.0" depart="2.00" departLane="free" departSpeed="55.55" fromTaz="taz_11" toTaz="taz_1" arrival="831.00">
        <route edges="34_28 28_27 27_21 21_15 15_9 9_8 8_2" exitTimes="11.00 92.00 190.00 330.00 586.00 824.00 831.00"/>
    </vehicle>

    <vehicle id="23.0" depart="2.00" departLane="free" departSpeed="55.57" fromTaz="taz_2" toTaz="taz_1" arrival="41.00">
        <route edges="3_9 9_8 8_2" exitTimes="11.00 33.00 41.00"/>
    </vehicle>

    <vehicle id="34.0" depart="2.00" departLane="free" departSpeed="55.57" fromTaz="taz_3" toTaz="taz_1" arrival="167.00">
        <route edges="4_10 10_9 9_8 8_2" exitTimes="11.00 121.00 159.00 167.00"/>
    </vehicle>

    <vehicle id="45.0" depart="2.00" departLane="free" departSpeed="55.56" fromTaz="taz_4" toTaz="taz_1" arrival="187.00">
        <route edges="12_13 13_7 7_8 8_2" exitTimes="11.00 53.00 180.00 187.00"/>
    </vehicle>

    <vehicle id="56.0" depart="2.00" departLane="free" departSpeed="55.57" fromTaz="taz_5" toTaz="taz_1" arrival="277.00">
        <route edges="17_16 16_10 10_9 9_8 8_2" exitTimes="11.00 88.00 198.00 269.00 277.00"/>
    </vehicle>

    <vehicle id="67.0" depart="2.00" departLane="free" departSpeed="55.55" fromTaz="taz_6" toTaz="taz_1" arrival="475.00">
        <route edges="18_19 19_20 20_14 14_8 8_2" exitTimes="11.00 97.00 165.00 467.00 475.00"/>
    </vehicle>

    <vehicle id="78.0" depart="2.00" departLane="free" departSpeed="55.55" fromTaz="taz_7" toTaz="taz_1" arrival="479.00">
        <route edges="23_22 22_16 16_15 15_9 9_8 8_2" exitTimes="11.00 109.00 219.00 384.00 471.00 479.00"/>
    </vehicle>

    <vehicle id="89.0" depart="2.00" departLane="free" departSpeed="55.56" fromTaz="taz_8" toTaz="taz_1" arrival="660.00">
        <route edges="31_25 25_19 19_20 20_14 14_8 8_2" exitTimes="11.00 111.00 196.00 264.00 652.00 660.00"/>
    </vehicle>

    <vehicle id="10.0" depart="4.00" departLane="free" departSpeed="55.57" fromTaz="taz_0" toTaz="taz_11" arrival="551.00">
        <route edges="1_7 7_8 8_9 9_15 15_21 21_27 27_28 28_34" exitTimes="13.00 133.00 155.00 223.00 362.00 462.00 542.00 551.00"/>
    </vehicle>

    <vehicle id="102.0" depart="4.00" departLane="free" departSpeed="55.56" fromTaz="taz_9" toTaz="taz_3" arrival="765.00">
        <route edges="32_26 26_20 20_14 14_8 8_9 9_10 10_4" exitTimes="13.00 141.00 209.00 628.00 650.00 757.00 765.00"/>
    </vehicle>

    <vehicle id="112.0" depart="4.00" departLane="free" departSpeed="55.56" fromTaz="taz_10" toTaz="taz_2" arrival="514.00">
        <route edges="33_27 27_21 21_15 15_9 9_3" exitTimes="13.00 111.00 251.00 505.00 514.00"/>
    </vehicle>

    <vehicle id="124.0" depart="4.00" departLane="free" departSpeed="55.55" fromTaz="taz_11" toTaz="taz_3" arrival="310.00">
        <route edges="34_28 28_22 22_16 16_10 10_4" exitTimes="13.00 134.00 228.00 302.00 310.00"/>
    </vehicle>

    <vehicle id="13.0" depart="4.00" departLane="free" departSpeed="55.57" fromTaz="taz_1" toTaz="taz_3" arrival="150.00">
        <route edges="2_8 8_9 9_10 10_4" exitTimes="12.00 34.00 141.00 150.00"/>
    </vehicle>

    <vehicle id="24.0" depart="4.00" departLane="free" departSpeed="55.57" fromTaz="taz_2" toTaz="taz_3" arrival="128.00">
        <route edges="3_9 9_10 10_4" exitTimes="13.00 120.00 128.00"/>
    </vehicle>

    <vehicle id="35.0" depart="4.00" departLane="free" departSpeed="55.57" fromTaz="taz_3" toTaz="taz_2" arrival="131.00">
        <route edges="4_10 10_9 9_3" exitTimes="13.00 122.00 131.00"/>
    </vehicle>

    <vehicle id="46.0" depart="4.00" departLane="free" departSpeed="55.56" fromTaz="taz_4" toTaz="taz_2" arrival="214.00">
        <route edges="12_13 13_7 7_8 8_9 9_3" exitTimes="13.00 55.00 184.00 206.00 214.00"/>
    </vehicle>

    <vehicle id="57.0" depart="4.00" departLane="free" departSpeed="55.57" fromTaz="taz_5" toTaz="taz_2" arrival="199.00">
        <route edges="17_16 16_15 15_9 9_3" exitTimes="13.00 123.00 191.00 199.00"/>
    </vehicle>

    <vehicle id="68.0" depart="4.00" departLane="free" departSpeed="55.55" fromTaz="taz_6" toTaz="taz_2" arrival="500.00">
        <route edges="18_19 19_20 20_14 14_8 8_9 9_3" exitTimes="13.00 99.00 167.00 469.00 491.00 500.00"/>
    </vehicle>

    <vehicle id="79.0" depart="4.00" departLane="free" departSpeed="55.55" fromTaz="taz_7" toTaz="taz_2" arrival="395.00">
        <route edges="23_22 22_16 16_15 15_9 9_3" exitTimes="13.00 111.00 221.00 386.00 395.00"/>
    </vehicle>

    <vehicle id="90.0" depart="4.00" departLane="free" departSpeed="55.56" fromTaz="taz_8" toTaz="taz_2" arrival="685.00">
        <route edges="31_25 25_19 19_20 20_14 14_8 8_9 9_3" exitTimes="13.00 113.00 198.00 266.00 654.00 676.00 685.00"/>
    </vehicle>

    <vehicle id="103.0" depart="6.00" departLane="free" departSpeed="55.56" fromTaz="taz_9" toTaz="taz_4" arrival="326.00">
        <route edges="32_26 26_20 20_14 14_13 13_12" exitTimes="15.00 142.00 211.00 317.00 326.00"/>
    </vehicle>

    <vehicle id="114.0" depart="6.00" departLane="free" departSpeed="55.56" fromTaz="taz_10" toTaz="taz_4" arrival="446.00">
        <route edges="33_27 27_26 26_20 20_14 14_13 13_12" exitTimes="15.00 133.00 263.00 331.00 437.00 446.00"/>
    </vehicle>

    <vehicle id="125.0" depart="6.00" departLane="free" departSpeed="55.55" fromTaz="taz_11" toTaz="taz_4" arrival="528.00">
        <route edges="34_28 28_27 27_26 26_20 20_14 14_13 13_12" exitTimes="15.00 97.00 215.00 342.00 411.00 520.00 528.00"/>
    </vehicle>

    <vehicle id="14.0" depart="6.00" departLane="free" departSpeed="55.57" fromTaz="taz_1" toTaz="taz_4" arrival="185.00">
        <route edges="2_8 8_7 7_13 13_12" exitTimes="14.00 134.00 176.00 185.00"/>
    </vehicle>

    <vehicle id="2.0" depart="6.00" departLane="free" departSpeed="55.57" fromTaz="taz_0" toTaz="taz_3" arrival="273.00">
        <route edges="1_7 7_8 8_9 9_10 10_4" exitTimes="15.00 135.00 157.00 264.00 273.00"/>
    </vehicle>

    <vehicle id="25.0" depart="6.00" departLane="free" departSpeed="55.57" fromTaz="taz_2" toTaz="taz_4" arrival="207.00">
        <route edges="3_9 9_8 8_7 7_13 13_12" exitTimes="15.00 37.00 157.00 199.00 207.00"/>
    </vehicle>

    <vehicle id="36.0" depart="6.00" departLane="free" departSpeed="55.57" fromTaz="taz_3" toTaz="taz_4" arrival="332.00">
        <route edges="4_10 10_9 9_8 8_7 7_13 13_12" exitTimes="15.00 124.00 161.00 281.00 323.00 332.00"/>
    </vehicle>

    <vehicle id="47.0" depart="6.00" departLane="free" departSpeed="55.56" fromTaz="taz_4" toTaz="taz_3" arrival="325.00">
        <route edges="12_13 13_7 7_8 8_9 9_10 10_4" exitTimes="15.00 57.00 186.00 210.00 316.00 325.00"/>
    </vehicle>

    <vehicle id="58.0" depart="6.00" departLane="free" departSpeed="55.57" fromTaz="taz_5" toTaz="taz_3" arrival="99.00">
        <route edges="17_16 16_10 10_4" exitTimes="15.00 90.00 99.00"/>
    </vehicle>

    <vehicle id="69.0" depart="6.00" departLane="free" departSpeed="55.55" fromTaz="taz_6" toTaz="taz_3" arrival="609.00">
        <route edges="18_19 19_20 20_14 14_8 8_9 9_10 10_4" exitTimes="15.00 101.00 169.00 471.00 493.00 600.00 609.00"/>
    </vehicle>

    <vehicle id="80.0" depart="6.00" departLane="free" departSpeed="55.55" fromTaz="taz_7" toTaz="taz_3" arrival="195.00">
        <route edges="23_22 22_16 16_10 10_4" exitTimes="15.00 112.00 186.00 195.00"/>
    </vehicle>

    <vehicle id="91.0" depart="6.00" departLane="free" departSpeed="55.56" fromTaz="taz_8" toTaz="taz_3" arrival="793.00">
        <route edges="31_25 25_19 19_20 20_14 14_8 8_9 9_10 10_4" exitTimes="15.00 114.00 200.00 268.00 656.00 678.00 785.00 793.00"/>
    </vehicle>

    <vehicle id="104.0" depart="8.00" departLane="free" departSpeed="55.56" fromTaz="taz_9" toTaz="taz_5" arrival="418.00">
        <route edges="32_26 26_20 20_14 14_15 15_16 16_17" exitTimes="17.00 144.00 213.00 285.00 409.00 418.00"/>
    </vehicle>

    <vehicle id="115.0" depart="8.00" departLane="free" departSpeed="55.56" fromTaz="taz_10" toTaz="taz_5" arrival="296.00">
        <route edges="33_27 27_21 21_22 22_16 16_17" exitTimes="17.00 115.00 192.00 288.00 296.00"/>
    </vehicle>

    <vehicle id="126.0" depart="8.00" departLane="free" departSpeed="55.55" fromTaz="taz_11" toTaz="taz_5" arrival="250.00">
        <route edges="34_28 28_22 22_16 16_17" exitTimes="17.00 142.00 242.00 250.00"/>
    </vehicle>

    <vehicle id="15.0" depart="8.00" departLane="free" departSpeed="55.57" fromTaz="taz_1" toTaz="taz_5" arrival="225.00">
        <route edges="2_8 8_9 9_15 15_16 16_17" exitTimes="16.00 38.00 106.00 216.00 225.00"/>
    </vehicle>

    <vehicle id="27.0" depart="8.00" departLane="free" departSpeed="55.57" fromTaz="taz_2" toTaz="taz_6" arrival="321.00">
        <route edges="3_9 9_8 8_14 14_20 20_19 19_18" exitTimes="17.00 39.00 140.00 225.00 312.00 321.00"/>
    </vehicle>

    <vehicle id="3.0" depart="8.00" departLane="free" departSpeed="55.57" fromTaz="taz_0" toTaz="taz_4" arrival="69.00">
        <route edges="1_7 7_13 13_12" exitTimes="17.00 60.00 69.00"/>
    </vehicle>

    <vehicle id="37.0" depart="8.00" departLane="free" departSpeed="55.57" fromTaz="taz_3" toTaz="taz_5" arrival="100.00">
        <route edges="4_10 10_16 16_17" exitTimes="17.00 91.00 100.00"/>
    </vehicle>

    <vehicle id="48.0" depart="8.00" departLane="free" departSpeed="55.56" fromTaz="taz_4" toTaz="taz_5" arrival="330.00">
        <route edges="12_13 13_14 14_15 15_16 16_17" exitTimes="17.00 126.00 198.00 321.00 330.00"/>
    </vehicle>

    <vehicle id="59.0" depart="8.00" departLane="free" departSpeed="55.57" fromTaz="taz_5" toTaz="taz_4" arrival="335.00">
        <route edges="17_16 16_15 15_14 14_13 13_12" exitTimes="17.00 127.00 213.00 326.00 335.00"/>
    </vehicle>

    <vehicle id="70.0" depart="8.00" departLane="free" departSpeed="55.55" fromTaz="taz_6" toTaz="taz_4" arrival="175.00">
        <route edges="18_19 19_13 13_12" exitTimes="17.00 166.00 175.00"/>
    </vehicle>

    <vehicle id="81.0" depart="8.00" departLane="free" departSpeed="55.55" fromTaz="taz_7" toTaz="taz_4" arrival="995.00">
        <route edges="23_22 22_16 16_15 15_14 14_13 13_12" exitTimes="17.00 114.00 239.00 880.00 986.00 995.00"/>
    </vehicle>

    <vehicle id="92.0" depart="8.00" departLane="free" departSpeed="55.56" fromTaz="taz_8" toTaz="taz_4" arrival="274.00">
        <route edges="31_25 25_19 19_13 13_12" exitTimes="17.00 116.00 265.00 274.00"/>
    </vehicle>

    <vehicle id="105.0" depart="10.00" departLane="free" departSpeed="55.56" fromTaz="taz_9" toTaz="taz_6" arrival="222.00">
        <route edges="32_26 26_25 25_19 19_18" exitTimes="19.00 112.00 213.00 222.00"/>
    </vehicle>

    <vehicle id="116.0" depart="10.00" departLane="free" departSpeed="55.56" fromTaz="taz_10" toTaz="taz_6" arrival="337.00">
        <route edges="33_27 27_26 26_25 25_19 19_18" exitTimes="19.00 137.00 230.00 328.00 337.00"/>
    </vehicle>

    <vehicle id="127.0" depart="10.00" departLane="free" departSpeed="55.55" fromTaz="taz_11" toTaz="taz_6" arrival="425.00">
        <route edges="34_28 28_27 27_26 26_25 25_19 19_18" exitTimes="19.00 100.00 220.00 312.00 416.00 425.00"/>
    </vehicle>

    <vehicle id="16.0" depart="10.00" departLane="free" departSpeed="55.57" fromTaz="taz_1" toTaz="taz_6" arrival="288.00">
        <route edges="2_8 8_14 14_20 20_19 19_18" exitTimes="18.00 119.00 187.00 279.00 288.00"/>
    </vehicle>

    <vehicle id="28.0" depart="10.00" departLane="free" departSpeed="55.57" fromTaz="taz_2" toTaz="taz_7" arrival="304.00">
        <route edges="3_9 9_10 10_16 16_22 22_23" exitTimes="19.00 126.00 200.00 295.00 304.00"/>
    </vehicle>

    <vehicle id="38.0" depart="10.00" departLane="free" departSpeed="55.57" fromTaz="taz_3" toTaz="taz_6" arrival="437.00">
        <route edges="4_10 10_9 9_8 8_14 14_20 20_19 19_18" exitTimes="19.00 126.00 173.00 274.00 342.00 428.00 437.00"/>
    </vehicle>

    <vehicle id="4.0" depart="10.00" departLane="free" departSpeed="55.57" fromTaz="taz_0" toTaz="taz_5" arrival="367.00">
        <route edges="1_7 7_8 8_9 9_15 15_16 16_17" exitTimes="19.00 139.00 161.00 229.00 358.00 367.00"/>
    </vehicle>

    <vehicle id="49.0" depart="10.00" departLane="free" departSpeed="55.56" fromTaz="taz_4" toTaz="taz_6" arrival="177.00">
        <route edges="12_13 13_19 19_18" exitTimes="19.00 168.00 177.00"/>
    </vehicle>

    <vehicle id="60.0" depart="10.00" departLane="free" departSpeed="55.57" fromTaz="taz_5" toTaz="taz_6" arrival="402.00">
        <route edges="17_16 16_15 15_14 14_20 20_19 19_18" exitTimes="19.00 131.00 232.00 305.00 394.00 402.00"/>
    </vehicle>

    <vehicle id="71.0" depart="10.00" departLane="free" departSpeed="55.55" fromTaz="taz_6" toTaz="taz_5" arrival="381.00">
        <route edges="18_19 19_20 20_14 14_15 15_16 16_17" exitTimes="19.00 105.00 173.00 262.00 373.00 381.00"/>
    </vehicle>

    <vehicle id="82.0" depart="10.00" departLane="free" departSpeed="55.55" fromTaz="taz_7" toTaz="taz_5" arrival="133.00">
        <route edges="23_22 22_16 16_17" exitTimes="19.00 124.00 133.00"/>
    </vehicle>

    <vehicle id="93.0" depart="10.00" departLane="free" departSpeed="55.56" fromTaz="taz_8" toTaz="taz_5" arrival="465.00">
        <route edges="31_25 25_19 19_20 20_14 14_15 15_16 16_17" exitTimes="19.00 118.00 203.00 271.00 343.00 456.00 465.00"/>
    </vehicle>

    <vehicle id="106.0" depart="12.00" departLane="free" departSpeed="55.56" fromTaz="taz_9" toTaz="taz_7" arrival="323.00">
        <route edges="32_26 26_27 27_21 21_22 22_23" exitTimes="21.00 139.00 237.00 314.00 323.00"/>
    </vehicle>

    <vehicle id="117.0" depart="12.00" departLane="free" departSpeed="55.56" fromTaz="taz_10" toTaz="taz_7" arrival="205.00">
        <route edges="33_27 27_21 21_22 22_23" exitTimes="21.00 119.00 196.00 205.00"/>
    </vehicle>

    <vehicle id="128.0" depart="12.00" departLane="free" departSpeed="55.55" fromTaz="taz_11" toTaz="taz_7" arrival="152.00">
        <route edges="34_28 28_22 22_23" exitTimes="21.00 144.00 152.00"/>
    </vehicle>

    <vehicle id="17.0" depart="12.00" departLane="free" departSpeed="55.57" fromTaz="taz_1" toTaz="taz_7" arrival="324.00">
        <route edges="2_8 8_9 9_15 15_16 16_22 22_23" exitTimes="20.00 42.00 110.00 220.00 315.00 324.00"/>
    </vehicle>

    <vehicle id="29.0" depart="12.00" departLane="free" departSpeed="55.57" fromTaz="taz_2" toTaz="taz_8" arrival="446.00">
        <route edges="3_9 9_8 8_14 14_20 20_19 19_25 25_31" exitTimes="21.00 46.00 147.00 229.00 332.00 437.00 446.00"/>
    </vehicle>

    <vehicle id="39.0" depart="12.00" departLane="free" departSpeed="55.57" fromTaz="taz_3" toTaz="taz_7" arrival="197.00">
        <route edges="4_10 10_16 16_22 22_23" exitTimes="21.00 95.00 188.00 197.00"/>
    </vehicle>

    <vehicle id="5.0" depart="12.00" departLane="free" departSpeed="55.57" fromTaz="taz_0" toTaz="taz_6" arrival="221.00">
        <route edges="1_7 7_13 13_19 19_18" exitTimes="21.00 63.00 212.00 221.00"/>
    </vehicle>

    <vehicle id="50.0" depart="12.00" departLane="free" departSpeed="55.56" fromTaz="taz_4" toTaz="taz_7" arrival="425.00">
        <route edges="12_13 13_14 14_15 15_16 16_22 22_23" exitTimes="21.00 127.00 199.00 323.00 416.00 425.00"/>
    </vehicle>

    <vehicle id="61.0" depart="12.00" departLane="free" departSpeed="55.57" fromTaz="taz_5" toTaz="taz_7" arrival="124.00">
        <route edges="17_16 16_22 22_23" exitTimes="21.00 115.00 124.00"/>
    </vehicle>

    <vehicle id="72.0" depart="12.00" departLane="free" departSpeed="55.55" fromTaz="taz_6" toTaz="taz_7" arrival="357.00">
        <route edges="18_19 19_20 20_21 21_22 22_23" exitTimes="21.00 107.00 271.00 348.00 357.00"/>
    </vehicle>

    <vehicle id="83.0" depart="12.00" departLane="free" departSpeed="55.55" fromTaz="taz_7" toTaz="taz_6" arrival="357.00">
        <route edges="23_22 22_21 21_20 20_19 19_18" exitTimes="21.00 98.00 262.00 349.00 357.00"/>
    </vehicle>

    <vehicle id="94.0" depart="12.00" departLane="free" departSpeed="55.56" fromTaz="taz_8" toTaz="taz_6" arrival="129.00">
        <route edges="31_25 25_19 19_18" exitTimes="21.00 120.00 129.00"/>
    </vehicle>

    <vehicle id="107.0" depart="14.00" departLane="free" departSpeed="55.56" fromTaz="taz_9" toTaz="taz_8" arrival="124.00">
        <route edges="32_26 26_25 25_31" exitTimes="23.00 116.00 124.00"/>
    </vehicle>

    <vehicle id="118.0" depart="14.00" departLane="free" departSpeed="55.56" fromTaz="taz_10" toTaz="taz_8" arrival="243.00">
        <route edges="33_27 27_26 26_25 25_31" exitTimes="23.00 141.00 234.00 243.00"/>
    </vehicle>

    <vehicle id="129.0" depart="14.00" departLane="free" departSpeed="55.55" fromTaz="taz_11" toTaz="taz_8" arrival="325.00">
        <route edges="34_28 28_27 27_26 26_25 25_31" exitTimes="23.00 104.00 222.00 316.00 325.00"/>
    </vehicle>

    <vehicle id="18.0" depart="14.00" departLane="free" departSpeed="55.57" fromTaz="taz_1" toTaz="taz_8" arrival="388.00">
        <route edges="2_8 8_14 14_20 20_19 19_25 25_31" exitTimes="22.00 123.00 191.00 280.00 379.00 388.00"/>
    </vehicle>

    <vehicle id="30.0" depart="14.00" departLane="free" departSpeed="55.57" fromTaz="taz_2" toTaz="taz_9" arrival="356.00">
        <route edges="3_9 9_8 8_14 14_20 20_26 26_32" exitTimes="23.00 48.00 149.00 231.00 347.00 356.00"/>
    </vehicle>

    <vehicle id="40.0" depart="14.00" departLane="free" departSpeed="55.57" fromTaz="taz_3" toTaz="taz_8" arrival="541.00">
        <route edges="4_10 10_9 9_8 8_14 14_20 20_19 19_25 25_31" exitTimes="23.00 130.00 179.00 280.00 348.00 433.00 532.00 541.00"/>
    </vehicle>

    <vehicle id="51.0" depart="14.00" departLane="free" departSpeed="55.56" fromTaz="taz_4" toTaz="taz_8" arrival="280.00">
        <route edges="12_13 13_19 19_25 25_31" exitTimes="23.00 172.00 271.00 280.00"/>
    </vehicle>

    <vehicle id="6.0" depart="14.00" departLane="free" departSpeed="55.57" fromTaz="taz_0" toTaz="taz_7" arrival="462.00">
        <route edges="1_7 7_8 8_9 9_15 15_16 16_22 22_23" exitTimes="23.00 143.00 165.00 233.00 360.00 453.00 462.00"/>
    </vehicle>

    <vehicle id="62.0" depart="14.00" departLane="free" departSpeed="55.57" fromTaz="taz_5" toTaz="taz_8" arrival="543.00">
        <route edges="17_16 16_15 15_14 14_20 20_19 19_25 25_31" exitTimes="23.00 133.00 282.00 350.00 435.00 534.00 543.00"/>
    </vehicle>

    <vehicle id="73.0" depart="14.00" departLane="free" departSpeed="55.55" fromTaz="taz_6" toTaz="taz_8" arrival="131.00">
        <route edges="18_19 19_25 25_31" exitTimes="23.00 122.00 131.00"/>
    </vehicle>

    <vehicle id="84.0" depart="14.00" departLane="free" departSpeed="55.55" fromTaz="taz_7" toTaz="taz_8" arrival="420.00">
        <route edges="23_22 22_21 21_27 27_26 26_25 25_31" exitTimes="23.00 100.00 198.00 319.00 411.00 420.00"/>
    </vehicle>

    <vehicle id="95.0" depart="14.00" departLane="free" departSpeed="55.56" fromTaz="taz_8" toTaz="taz_7" arrival="423.00">
        <route edges="31_25 25_26 26_27 27_21 21_22 22_23" exitTimes="23.00 116.00 239.00 337.00 414.00 423.00"/>
    </vehicle>

    <vehicle id="108.0" depart="16.00" departLane="free" departSpeed="55.56" fromTaz="taz_9" toTaz="taz_10" arrival="152.00">
        <route edges="32_26 26_27 27_33" exitTimes="25.00 143.00 152.00"/>
    </vehicle>

    <vehicle id="119.0" depart="16.00" departLane="free" departSpeed="55.56" fromTaz="taz_10" toTaz="taz_9" arrival="156.00">
        <route edges="33_27 27_26 26_32" exitTimes="25.00 147.00 156.00"/>
    </vehicle>

    <vehicle id="130.0" depart="16.00" departLane="free" departSpeed="55.55" fromTaz="taz_11" toTaz="taz_9" arrival="233.00">
        <route edges="34_28 28_27 27_26 26_32" exitTimes="25.00 106.00 224.00 233.00"/>
    </vehicle>

    <vehicle id="19.0" depart="16.00" departLane="free" departSpeed="55.57" fromTaz="taz_1" toTaz="taz_9" arrival="343.00">
        <route edges="2_8 8_14 14_20 20_26 26_32" exitTimes="24.00 125.00 218.00 335.00 343.00"/>
    </vehicle>

    <vehicle id="31.0" depart="16.00" departLane="free" departSpeed="55.57" fromTaz="taz_2" toTaz="taz_10" arrival="355.00">
        <route edges="3_9 9_15 15_21 21_27 27_33" exitTimes="25.00 93.00 232.00 346.00 355.00"/>
    </vehicle>

    <vehicle id="41.0" depart="16.00" departLane="free" departSpeed="55.57" fromTaz="taz_3" toTaz="taz_9" arrival="489.00">
        <route edges="4_10 10_9 9_8 8_14 14_20 20_26 26_32" exitTimes="25.00 132.00 190.00 291.00 363.00 481.00 489.00"/>
    </vehicle>

    <vehicle id="52.0" depart="16.00" departLane="free" departSpeed="55.56" fromTaz="taz_4" toTaz="taz_9" arrival="346.00">
        <route edges="12_13 13_14 14_20 20_26 26_32" exitTimes="25.00 131.00 221.00 337.00 346.00"/>
    </vehicle>

    <vehicle id="63.0" depart="16.00" departLane="free" departSpeed="55.57" fromTaz="taz_5" toTaz="taz_9" arrival="727.00">
        <route edges="17_16 16_15 15_14 14_20 20_26 26_32" exitTimes="25.00 135.00 483.00 596.00 718.00 727.00"/>
    </vehicle>

    <vehicle id="7.0" depart="16.00" departLane="free" departSpeed="55.57" fromTaz="taz_0" toTaz="taz_8" arrival="324.00">
        <route edges="1_7 7_13 13_19 19_25 25_31" exitTimes="25.00 67.00 216.00 315.00 324.00"/>
    </vehicle>

    <vehicle id="74.0" depart="16.00" departLane="free" departSpeed="55.55" fromTaz="taz_6" toTaz="taz_9" arrival="225.00">
        <route edges="18_19 19_25 25_26 26_32" exitTimes="25.00 124.00 216.00 225.00"/>
    </vehicle>

    <vehicle id="85.0" depart="16.00" departLane="free" departSpeed="55.55" fromTaz="taz_7" toTaz="taz_9" arrival="329.00">
        <route edges="23_22 22_21 21_27 27_26 26_32" exitTimes="25.00 102.00 200.00 321.00 329.00"/>
    </vehicle>

    <vehicle id="96.0" depart="16.00" departLane="free" departSpeed="55.56" fromTaz="taz_8" toTaz="taz_9" arrival="126.00">
        <route edges="31_25 25_26 26_32" exitTimes="25.00 118.00 126.00"/>
    </vehicle>

    <vehicle id="109.0" depart="18.00" departLane="free" departSpeed="55.56" fromTaz="taz_9" toTaz="taz_11" arrival="235.00">
        <route edges="32_26 26_27 27_28 28_34" exitTimes="27.00 145.00 226.00 235.00"/>
    </vehicle>

    <vehicle id="120.0" depart="18.00" departLane="free" departSpeed="55.56" fromTaz="taz_10" toTaz="taz_11" arrival="117.00">
        <route edges="33_27 27_28 28_34" exitTimes="27.00 108.00 117.00"/>
    </vehicle>

    <vehicle id="131.0" depart="18.00" departLane="free" departSpeed="55.55" fromTaz="taz_11" toTaz="taz_10" arrival="117.00">
        <route edges="34_28 28_27 27_33" exitTimes="27.00 108.00 117.00"/>
    </vehicle>

    <vehicle id="20.0" depart="18.00" departLane="free" departSpeed="55.57" fromTaz="taz_1" toTaz="taz_10" arrival="362.00">
        <route edges="2_8 8_9 9_15 15_21 21_27 27_33" exitTimes="26.00 48.00 116.00 256.00 354.00 362.00"/>
    </vehicle>

    <vehicle id="32.0" depart="18.00" departLane="free" departSpeed="55.57" fromTaz="taz_2" toTaz="taz_11" arrival="437.00">
        <route edges="3_9 9_15 15_21 21_27 27_28 28_34" exitTimes="27.00 95.00 234.00 348.00 428.00 437.00"/>
    </vehicle>

    <vehicle id="42.0" depart="18.00" departLane="free" departSpeed="55.57" fromTaz="taz_3" toTaz="taz_10" arrival="387.00">
        <route edges="4_10 10_16 16_22 22_21 21_27 27_33" exitTimes="27.00 101.00 194.00 273.00 378.00 387.00"/>
    </vehicle>

    <vehicle id="53.0" depart="18.00" departLane="free" departSpeed="55.56" fromTaz="taz_4" toTaz="taz_10" arrival="466.00">
        <route edges="12_13 13_14 14_20 20_26 26_27 27_33" exitTimes="27.00 133.00 223.00 339.00 457.00 466.00"/>
    </vehicle>

    <vehicle id="64.0" depart="18.00" departLane="free" departSpeed="55.57" fromTaz="taz_5" toTaz="taz_10" arrival="309.00">
        <route edges="17_16 16_22 22_21 21_27 27_33" exitTimes="27.00 124.00 201.00 301.00 309.00"/>
    </vehicle>

    <vehicle id="75.0" depart="18.00" departLane="free" departSpeed="55.55" fromTaz="taz_6" toTaz="taz_10" arrival="346.00">
        <route edges="18_19 19_25 25_26 26_27 27_33" exitTimes="27.00 126.00 219.00 337.00 346.00"/>
    </vehicle>
