<?xml version="1.0" encoding="UTF-8"?>

<!-- generated on 2022-01-22 20:14:55 by Eclipse SUMO sumo Version 1.10.0
<configuration xmlns:xsi="http://www.w3.org/2001/XMLSchema-instance" xsi:noNamespaceSchemaLocation="http://sumo.dlr.de/xsd/sumoConfiguration.xsd">

    <input>
        <net-file value="static/_09fe330b-397c-458e-9dbc-ae0c1f3c51cd/0/9/../../../../input_files/network/sumo-grid-network-od132.net.xml"/>
        <route-files value="static/_09fe330b-397c-458e-9dbc-ae0c1f3c51cd/0/9/trips_009.rou.xml"/>
        <additional-files value="static/_09fe330b-397c-458e-9dbc-ae0c1f3c51cd/0/9/dua_dump_009.add.xml"/>
    </input>

    <output>
        <summary-output value="static/_09fe330b-397c-458e-9dbc-ae0c1f3c51cd/0/9/summary_009.xml"/>
        <tripinfo-output value="static/_09fe330b-397c-458e-9dbc-ae0c1f3c51cd/0/9/tripinfo_009.xml"/>
        <vehroute-output value="static/_09fe330b-397c-458e-9dbc-ae0c1f3c51cd/0/9/vehRoutes.veh.xml"/>
        <vehroute-output.exit-times value="true"/>
        <vehroute-output.last-route value="true"/>
        <vehroute-output.sorted value="true"/>
        <vehroute-output.write-unfinished value="true"/>
    </output>

    <time>
        <begin value="0.0"/>
        <end value="4500.0"/>
    </time>

    <processing>
        <route-steps value="200"/>
        <no-internal-links value="false"/>
        <time-to-teleport value="4500.0"/>
        <time-to-teleport.highways value="0"/>
        <max-depart-delay value="4500"/>
        <eager-insert value="false"/>
        <default.speeddev value="0"/>
        <pedestrian.model value="nonInteracting"/>
    </processing>

    <report>
        <verbose value="true"/>
        <xml-validation value="never"/>
        <xml-validation.routes value="never"/>
        <no-warnings value="false"/>
        <log value="static/_09fe330b-397c-458e-9dbc-ae0c1f3c51cd/0/9/iteration_009.sumo.log"/>
        <no-step-log value="true"/>
    </report>

    <mesoscopic>
        <mesosim value="true"/>
        <meso-junction-control value="true"/>
        <meso-recheck value="0"/>
    </mesoscopic>

    <random_number>
        <random value="false"/>
    </random_number>

</configuration>
-->

<tripinfos xmlns:xsi="http://www.w3.org/2001/XMLSchema-instance" xsi:noNamespaceSchemaLocation="http://sumo.dlr.de/xsd/tripinfo_file.xsd">
    <tripinfo id="12.0" depart="2.00" departLane="" departPos="0.00" departSpeed="55.57" departDelay="2.00" arrival="41.00" arrivalLane="" arrivalPos="475.38" arrivalSpeed="55.57" duration="39.00" routeLength="1210.74" waitingTime="0.00" waitingCount="0" stopTime="0.00" timeLoss="0.00" rerouteNo="0" devices="vehroute_12.0 tripinfo_12.0" vType="DEFAULT_VEHTYPE" speedFactor="1.00" vaporized=""/>
    <tripinfo id="23.0" depart="2.00" departLane="" departPos="0.00" departSpeed="55.57" departDelay="2.00" arrival="41.00" arrivalLane="" arrivalPos="429.88" arrivalSpeed="55.57" duration="39.00" routeLength="1210.74" waitingTime="0.00" waitingCount="0" stopTime="0.00" timeLoss="0.00" rerouteNo="0" devices="vehroute_23.0 tripinfo_23.0" vType="DEFAULT_VEHTYPE" speedFactor="1.00" vaporized=""/>
    <tripinfo id="44.0" depart="0.00" departLane="" departPos="0.00" departSpeed="55.56" departDelay="0.00" arrival="60.00" arrivalLane="" arrivalPos="490.96" arrivalSpeed="55.57" duration="60.00" routeLength="1558.62" waitingTime="0.00" waitingCount="0" stopTime="0.00" timeLoss="0.00" rerouteNo="0" devices="vehroute_44.0 tripinfo_44.0" vType="DEFAULT_VEHTYPE" speedFactor="1.00" vaporized=""/>
    <tripinfo id="3.0" depart="8.00" departLane="" departPos="0.00" departSpeed="55.57" departDelay="8.00" arrival="68.00" arrivalLane="" arrivalPos="486.13" arrivalSpeed="55.56" duration="60.00" routeLength="1558.62" waitingTime="0.00" waitingCount="0" stopTime="0.00" timeLoss="0.00" rerouteNo="0" devices="vehroute_3.0 tripinfo_3.0" vType="DEFAULT_VEHTYPE" speedFactor="1.00" vaporized=""/>
    <tripinfo id="23.1" depart="53.00" departLane="" departPos="0.00" departSpeed="55.57" departDelay="0.06" arrival="92.00" arrivalLane="" arrivalPos="429.88" arrivalSpeed="55.57" duration="39.00" routeLength="1210.74" waitingTime="0.00" waitingCount="0" stopTime="0.00" timeLoss="0.00" rerouteNo="0" devices="vehroute_23.1 tripinfo_23.1" vType="DEFAULT_VEHTYPE" speedFactor="1.00" vaporized=""/>
    <tripinfo id="58.0" depart="6.00" departLane="" departPos="0.00" departSpeed="55.57" departDelay="6.00" arrival="98.00" arrivalLane="" arrivalPos="476.21" arrivalSpeed="55.57" duration="92.00" routeLength="1990.10" waitingTime="0.00" waitingCount="0" stopTime="0.00" timeLoss="0.00" rerouteNo="0" devices="vehroute_58.0 tripinfo_58.0" vType="DEFAULT_VEHTYPE" speedFactor="1.00" vaporized=""/>
    <tripinfo id="37.0" depart="8.00" departLane="" departPos="0.00" departSpeed="55.57" departDelay="8.00" arrival="100.00" arrivalLane="" arrivalPos="489.02" arrivalSpeed="55.57" duration="92.00" routeLength="1990.10" waitingTime="0.00" waitingCount="0" stopTime="0.00" timeLoss="0.00" rerouteNo="0" devices="vehroute_37.0 tripinfo_37.0" vType="DEFAULT_VEHTYPE" speedFactor="1.00" vaporized=""/>
    <tripinfo id="120.0" depart="20.00" departLane="" departPos="0.00" departSpeed="55.56" departDelay="20.00" arrival="119.00" arrivalLane="" arrivalPos="494.71" arrivalSpeed="55.55" duration="99.00" routeLength="2098.47" waitingTime="0.00" waitingCount="0" stopTime="0.00" timeLoss="0.00" rerouteNo="0" devices="vehroute_120.0 tripinfo_120.0" vType="DEFAULT_VEHTYPE" speedFactor="1.00" vaporized=""/>
    <tripinfo id="131.0" depart="20.00" departLane="" departPos="0.00" departSpeed="55.55" departDelay="20.00" arrival="119.00" arrivalLane="" arrivalPos="487.52" arrivalSpeed="55.56" duration="99.00" routeLength="2098.47" waitingTime="0.00" waitingCount="0" stopTime="0.00" timeLoss="0.00" rerouteNo="0" devices="vehroute_131.0 tripinfo_131.0" vType="DEFAULT_VEHTYPE" speedFactor="1.00" vaporized=""/>
    <tripinfo id="82.0" depart="10.00" departLane="" departPos="0.00" departSpeed="55.55" departDelay="10.00" arrival="123.00" arrivalLane="" arrivalPos="489.02" arrivalSpeed="55.57" duration="113.00" routeLength="2277.96" waitingTime="0.00" waitingCount="0" stopTime="0.00" timeLoss="1.46" rerouteNo="0" devices="vehroute_82.0 tripinfo_82.0" vType="DEFAULT_VEHTYPE" speedFactor="1.00" vaporized=""/>
    <tripinfo id="107.0" depart="14.00" departLane="" departPos="0.00" departSpeed="55.56" departDelay="14.00" arrival="124.00" arrivalLane="" arrivalPos="492.01" arrivalSpeed="55.56" duration="110.00" routeLength="2256.91" waitingTime="0.00" waitingCount="0" stopTime="0.00" timeLoss="0.00" rerouteNo="0" devices="vehroute_107.0 tripinfo_107.0" vType="DEFAULT_VEHTYPE" speedFactor="1.00" vaporized=""/>
    <tripinfo id="61.0" depart="12.00" departLane="" departPos="0.00" departSpeed="55.57" departDelay="12.00" arrival="124.00" arrivalLane="" arrivalPos="489.65" arrivalSpeed="55.55" duration="112.00" routeLength="2277.96" waitingTime="0.00" waitingCount="0" stopTime="0.00" timeLoss="0.00" rerouteNo="0" devices="vehroute_61.0 tripinfo_61.0" vType="DEFAULT_VEHTYPE" speedFactor="1.00" vaporized=""/>
    <tripinfo id="96.0" depart="16.00" departLane="" departPos="0.00" departSpeed="55.56" departDelay="16.00" arrival="126.00" arrivalLane="" arrivalPos="481.41" arrivalSpeed="55.56" duration="110.00" routeLength="2256.91" waitingTime="0.00" waitingCount="0" stopTime="0.00" timeLoss="0.00" rerouteNo="0" devices="vehroute_96.0 tripinfo_96.0" vType="DEFAULT_VEHTYPE" speedFactor="1.00" vaporized=""/>
    <tripinfo id="24.0" depart="4.00" departLane="" departPos="0.00" departSpeed="55.57" departDelay="4.00" arrival="128.00" arrivalLane="" arrivalPos="476.21" arrivalSpeed="55.57" duration="124.00" routeLength="2435.49" waitingTime="0.00" waitingCount="0" stopTime="0.00" timeLoss="0.00" rerouteNo="0" devices="vehroute_24.0 tripinfo_24.0" vType="DEFAULT_VEHTYPE" speedFactor="1.00" vaporized=""/>
    <tripinfo id="35.0" depart="4.00" departLane="" departPos="0.00" departSpeed="55.57" departDelay="4.00" arrival="129.00" arrivalLane="" arrivalPos="475.38" arrivalSpeed="55.57" duration="125.00" routeLength="2435.49" waitingTime="0.00" waitingCount="0" stopTime="0.00" timeLoss="0.16" rerouteNo="0" devices="vehroute_35.0 tripinfo_35.0" vType="DEFAULT_VEHTYPE" speedFactor="1.00" vaporized=""/>
    <tripinfo id="73.0" depart="14.00" departLane="" departPos="0.00" departSpeed="55.55" departDelay="14.00" arrival="131.00" arrivalLane="" arrivalPos="492.01" arrivalSpeed="55.56" duration="117.00" routeLength="2353.57" waitingTime="0.00" waitingCount="0" stopTime="0.00" timeLoss="0.00" rerouteNo="0" devices="vehroute_73.0 tripinfo_73.0" vType="DEFAULT_VEHTYPE" speedFactor="1.00" vaporized=""/>
    <tripinfo id="94.0" depart="12.00" departLane="" departPos="0.00" departSpeed="55.56" departDelay="12.00" arrival="134.00" arrivalLane="" arrivalPos="491.10" arrivalSpeed="55.55" duration="122.00" routeLength="2353.57" waitingTime="0.00" waitingCount="0" stopTime="0.00" timeLoss="4.99" rerouteNo="0" devices="vehroute_94.0 tripinfo_94.0" vType="DEFAULT_VEHTYPE" speedFactor="1.00" vaporized=""/>
    <tripinfo id="0.0" depart="0.00" departLane="" departPos="0.00" departSpeed="55.57" departDelay="0.00" arrival="137.00" arrivalLane="" arrivalPos="429.88" arrivalSpeed="55.57" duration="137.00" routeLength="2584.63" waitingTime="0.00" waitingCount="0" stopTime="0.00" timeLoss="0.00" rerouteNo="0" devices="vehroute_0.0 tripinfo_0.0" vType="DEFAULT_VEHTYPE" speedFactor="1.00" vaporized=""/>
    <tripinfo id="11.0" depart="0.00" departLane="" departPos="0.00" departSpeed="55.57" departDelay="0.00" arrival="137.00" arrivalLane="" arrivalPos="490.96" arrivalSpeed="55.57" duration="137.00" routeLength="2584.63" waitingTime="0.00" waitingCount="0" stopTime="0.00" timeLoss="0.00" rerouteNo="0" devices="vehroute_11.0 tripinfo_11.0" vType="DEFAULT_VEHTYPE" speedFactor="1.00" vaporized=""/>
    <tripinfo id="37.1" depart="48.00" departLane="" departPos="0.00" departSpeed="55.57" departDelay="0.63" arrival="140.00" arrivalLane="" arrivalPos="489.02" arrivalSpeed="55.57" duration="92.00" routeLength="1990.10" waitingTime="0.00" waitingCount="0" stopTime="0.00" timeLoss="0.00" rerouteNo="0" devices="vehroute_37.1 tripinfo_37.1" vType="DEFAULT_VEHTYPE" speedFactor="1.00" vaporized=""/>
    <tripinfo id="13.0" depart="4.00" departLane="" departPos="0.00" departSpeed="55.57" departDelay="4.00" arrival="150.00" arrivalLane="" arrivalPos="476.21" arrivalSpeed="55.57" duration="146.00" routeLength="2695.47" waitingTime="0.00" waitingCount="0" stopTime="0.00" timeLoss="0.00" rerouteNo="0" devices="vehroute_13.0 tripinfo_13.0" vType="DEFAULT_VEHTYPE" speedFactor="1.00" vaporized=""/>
    <tripinfo id="108.0" depart="16.00" departLane="" departPos="0.00" departSpeed="55.56" departDelay="16.00" arrival="152.00" arrivalLane="" arrivalPos="487.52" arrivalSpeed="55.56" duration="136.00" routeLength="2608.87" waitingTime="0.00" waitingCount="0" stopTime="0.00" timeLoss="0.00" rerouteNo="0" devices="vehroute_108.0 tripinfo_108.0" vType="DEFAULT_VEHTYPE" speedFactor="1.00" vaporized=""/>
    <tripinfo id="12.1" depart="113.00" departLane="" departPos="0.00" departSpeed="55.57" departDelay="0.50" arrival="152.00" arrivalLane="" arrivalPos="475.38" arrivalSpeed="55.57" duration="39.00" routeLength="1210.74" waitingTime="0.00" waitingCount="0" stopTime="0.00" timeLoss="0.00" rerouteNo="0" devices="vehroute_12.1 tripinfo_12.1" vType="DEFAULT_VEHTYPE" speedFactor="1.00" vaporized=""/>
    <tripinfo id="128.0" depart="14.00" departLane="" departPos="0.00" departSpeed="55.55" departDelay="14.00" arrival="153.00" arrivalLane="" arrivalPos="489.65" arrivalSpeed="55.55" duration="139.00" routeLength="2664.89" waitingTime="0.00" waitingCount="0" stopTime="0.00" timeLoss="0.00" rerouteNo="0" devices="vehroute_128.0 tripinfo_128.0" vType="DEFAULT_VEHTYPE" speedFactor="1.00" vaporized=""/>
    <tripinfo id="119.0" depart="18.00" departLane="" departPos="0.00" departSpeed="55.56" departDelay="18.00" arrival="154.00" arrivalLane="" arrivalPos="481.41" arrivalSpeed="55.56" duration="136.00" routeLength="2608.87" waitingTime="0.00" waitingCount="0" stopTime="0.00" timeLoss="0.00" rerouteNo="0" devices="vehroute_119.0 tripinfo_119.0" vType="DEFAULT_VEHTYPE" speedFactor="1.00" vaporized=""/>
    <tripinfo id="96.1" depart="48.00" departLane="" departPos="0.00" departSpeed="55.56" departDelay="0.63" arrival="158.00" arrivalLane="" arrivalPos="481.41" arrivalSpeed="55.56" duration="110.00" routeLength="2256.91" waitingTime="0.00" waitingCount="0" stopTime="0.00" timeLoss="0.00" rerouteNo="0" devices="vehroute_96.1 tripinfo_96.1" vType="DEFAULT_VEHTYPE" speedFactor="1.00" vaporized=""/>
    <tripinfo id="87.0" depart="20.00" departLane="" departPos="0.00" departSpeed="55.55" departDelay="20.00" arrival="159.00" arrivalLane="" arrivalPos="494.71" arrivalSpeed="55.55" duration="139.00" routeLength="2664.89" waitingTime="0.00" waitingCount="0" stopTime="0.00" timeLoss="0.00" rerouteNo="0" devices="vehroute_87.0 tripinfo_87.0" vType="DEFAULT_VEHTYPE" speedFactor="1.00" vaporized=""/>
    <tripinfo id="22.0" depart="0.00" departLane="" departPos="0.00" departSpeed="55.57" departDelay="0.00" arrival="160.00" arrivalLane="" arrivalPos="490.96" arrivalSpeed="55.57" duration="160.00" routeLength="2935.61" waitingTime="0.00" waitingCount="0" stopTime="0.00" timeLoss="0.00" rerouteNo="0" devices="vehroute_22.0 tripinfo_22.0" vType="DEFAULT_VEHTYPE" speedFactor="1.00" vaporized=""/>
    <tripinfo id="23.2" depart="106.00" departLane="" departPos="0.00" departSpeed="55.57" departDelay="0.12" arrival="160.00" arrivalLane="" arrivalPos="429.88" arrivalSpeed="55.57" duration="54.00" routeLength="1210.74" waitingTime="0.00" waitingCount="0" stopTime="0.00" timeLoss="15.27" rerouteNo="0" devices="vehroute_23.2 tripinfo_23.2" vType="DEFAULT_VEHTYPE" speedFactor="1.00" vaporized=""/>
    <tripinfo id="1.0" depart="2.00" departLane="" departPos="0.00" departSpeed="55.57" departDelay="2.00" arrival="162.00" arrivalLane="" arrivalPos="475.38" arrivalSpeed="55.57" duration="160.00" routeLength="2935.61" waitingTime="0.00" waitingCount="0" stopTime="0.00" timeLoss="0.00" rerouteNo="0" devices="vehroute_1.0 tripinfo_1.0" vType="DEFAULT_VEHTYPE" speedFactor="1.00" vaporized=""/>
    <tripinfo id="34.0" depart="2.00" departLane="" departPos="0.00" departSpeed="55.57" departDelay="2.00" arrival="165.00" arrivalLane="" arrivalPos="429.88" arrivalSpeed="55.57" duration="163.00" routeLength="2695.47" waitingTime="0.00" waitingCount="0" stopTime="0.00" timeLoss="16.96" rerouteNo="0" devices="vehroute_34.0 tripinfo_34.0" vType="DEFAULT_VEHTYPE" speedFactor="1.00" vaporized=""/>
    <tripinfo id="44.1" depart="113.00" departLane="" departPos="0.00" departSpeed="55.56" departDelay="0.50" arrival="173.00" arrivalLane="" arrivalPos="490.96" arrivalSpeed="55.57" duration="60.00" routeLength="1558.62" waitingTime="0.00" waitingCount="0" stopTime="0.00" timeLoss="0.00" rerouteNo="0" devices="vehroute_44.1 tripinfo_44.1" vType="DEFAULT_VEHTYPE" speedFactor="1.00" vaporized=""/>
    <tripinfo id="131.1" depart="75.00" departLane="" departPos="0.00" departSpeed="55.55" departDelay="0.00" arrival="174.00" arrivalLane="" arrivalPos="487.52" arrivalSpeed="55.56" duration="99.00" routeLength="2098.47" waitingTime="0.00" waitingCount="0" stopTime="0.00" timeLoss="0.00" rerouteNo="0" devices="vehroute_131.1 tripinfo_131.1" vType="DEFAULT_VEHTYPE" speedFactor="1.00" vaporized=""/>
    <tripinfo id="70.0" depart="8.00" departLane="" departPos="0.00" departSpeed="55.55" departDelay="8.00" arrival="175.00" arrivalLane="" arrivalPos="486.13" arrivalSpeed="55.56" duration="167.00" routeLength="3045.90" waitingTime="0.00" waitingCount="0" stopTime="0.00" timeLoss="0.00" rerouteNo="0" devices="vehroute_70.0 tripinfo_70.0" vType="DEFAULT_VEHTYPE" speedFactor="1.00" vaporized=""/>
    <tripinfo id="49.0" depart="10.00" departLane="" departPos="0.00" departSpeed="55.56" departDelay="10.00" arrival="177.00" arrivalLane="" arrivalPos="491.10" arrivalSpeed="55.55" duration="167.00" routeLength="3045.90" waitingTime="0.00" waitingCount="0" stopTime="0.00" timeLoss="0.00" rerouteNo="0" devices="vehroute_49.0 tripinfo_49.0" vType="DEFAULT_VEHTYPE" speedFactor="1.00" vaporized=""/>
    <tripinfo id="14.0" depart="6.00" departLane="" departPos="0.00" departSpeed="55.57" departDelay="6.00" arrival="185.00" arrivalLane="" arrivalPos="486.13" arrivalSpeed="55.56" duration="179.00" routeLength="3161.33" waitingTime="0.00" waitingCount="0" stopTime="0.00" timeLoss="0.00" rerouteNo="0" devices="vehroute_14.0 tripinfo_14.0" vType="DEFAULT_VEHTYPE" speedFactor="1.00" vaporized=""/>
    <tripinfo id="45.0" depart="2.00" departLane="" departPos="0.00" departSpeed="55.56" departDelay="2.00" arrival="186.00" arrivalLane="" arrivalPos="429.88" arrivalSpeed="55.57" duration="184.00" routeLength="3161.33" waitingTime="4.89" waitingCount="0" stopTime="0.00" timeLoss="4.89" rerouteNo="0" devices="vehroute_45.0 tripinfo_45.0" vType="DEFAULT_VEHTYPE" speedFactor="1.00" vaporized=""/>
    <tripinfo id="0.1" depart="50.00" departLane="" departPos="0.00" departSpeed="55.57" departDelay="0.00" arrival="187.00" arrivalLane="" arrivalPos="429.88" arrivalSpeed="55.57" duration="137.00" routeLength="2584.63" waitingTime="0.00" waitingCount="0" stopTime="0.00" timeLoss="0.34" rerouteNo="0" devices="vehroute_0.1 tripinfo_0.1" vType="DEFAULT_VEHTYPE" speedFactor="1.00" vaporized=""/>
    <tripinfo id="73.1" depart="70.00" departLane="" departPos="0.00" departSpeed="55.55" departDelay="0.77" arrival="187.00" arrivalLane="" arrivalPos="492.01" arrivalSpeed="55.56" duration="117.00" routeLength="2353.57" waitingTime="0.00" waitingCount="0" stopTime="0.00" timeLoss="0.00" rerouteNo="0" devices="vehroute_73.1 tripinfo_73.1" vType="DEFAULT_VEHTYPE" speedFactor="1.00" vaporized=""/>
    <tripinfo id="37.2" depart="95.00" departLane="" departPos="0.00" departSpeed="55.57" departDelay="0.26" arrival="187.00" arrivalLane="" arrivalPos="489.02" arrivalSpeed="55.57" duration="92.00" routeLength="1990.10" waitingTime="0.00" waitingCount="0" stopTime="0.00" timeLoss="0.00" rerouteNo="0" devices="vehroute_37.2 tripinfo_37.2" vType="DEFAULT_VEHTYPE" speedFactor="1.00" vaporized=""/>
    <tripinfo id="80.0" depart="6.00" departLane="" departPos="0.00" departSpeed="55.55" departDelay="6.00" arrival="193.00" arrivalLane="" arrivalPos="476.21" arrivalSpeed="55.57" duration="187.00" routeLength="3290.02" waitingTime="0.00" waitingCount="0" stopTime="0.00" timeLoss="2.13" rerouteNo="0" devices="vehroute_80.0 tripinfo_80.0" vType="DEFAULT_VEHTYPE" speedFactor="1.00" vaporized=""/>
    <tripinfo id="57.0" depart="4.00" departLane="" departPos="0.00" departSpeed="55.57" departDelay="4.00" arrival="199.00" arrivalLane="" arrivalPos="475.38" arrivalSpeed="55.57" duration="195.00" routeLength="3431.49" waitingTime="0.00" waitingCount="0" stopTime="0.00" timeLoss="0.00" rerouteNo="0" devices="vehroute_57.0 tripinfo_57.0" vType="DEFAULT_VEHTYPE" speedFactor="1.00" vaporized=""/>
    <tripinfo id="39.0" depart="12.00" departLane="" departPos="0.00" departSpeed="55.57" departDelay="12.00" arrival="201.00" arrivalLane="" arrivalPos="489.65" arrivalSpeed="55.55" duration="189.00" routeLength="3290.02" waitingTime="4.00" waitingCount="0" stopTime="0.00" timeLoss="4.00" rerouteNo="0" devices="vehroute_39.0 tripinfo_39.0" vType="DEFAULT_VEHTYPE" speedFactor="1.00" vaporized=""/>
    <tripinfo id="34.1" depart="50.00" departLane="" departPos="0.00" departSpeed="55.57" departDelay="0.00" arrival="201.00" arrivalLane="" arrivalPos="429.88" arrivalSpeed="55.57" duration="151.00" routeLength="2695.47" waitingTime="0.00" waitingCount="0" stopTime="0.00" timeLoss="5.02" rerouteNo="0" devices="vehroute_34.1 tripinfo_34.1" vType="DEFAULT_VEHTYPE" speedFactor="1.00" vaporized=""/>
    <tripinfo id="23.3" depart="159.00" departLane="" departPos="0.00" departSpeed="55.57" departDelay="0.18" arrival="202.00" arrivalLane="" arrivalPos="429.88" arrivalSpeed="55.57" duration="43.00" routeLength="1210.74" waitingTime="0.00" waitingCount="0" stopTime="0.00" timeLoss="4.53" rerouteNo="0" devices="vehroute_23.3 tripinfo_23.3" vType="DEFAULT_VEHTYPE" speedFactor="1.00" vaporized=""/>
    <tripinfo id="96.2" depart="95.00" departLane="" departPos="0.00" departSpeed="55.56" departDelay="0.26" arrival="205.00" arrivalLane="" arrivalPos="481.41" arrivalSpeed="55.56" duration="110.00" routeLength="2256.91" waitingTime="0.00" waitingCount="0" stopTime="0.00" timeLoss="0.00" rerouteNo="0" devices="vehroute_96.2 tripinfo_96.2" vType="DEFAULT_VEHTYPE" speedFactor="1.00" vaporized=""/>
    <tripinfo id="26.0" depart="8.00" departLane="" departPos="0.00" departSpeed="55.57" departDelay="8.00" arrival="206.00" arrivalLane="" arrivalPos="489.02" arrivalSpeed="55.57" duration="198.00" routeLength="3473.17" waitingTime="0.00" waitingCount="0" stopTime="0.00" timeLoss="0.00" rerouteNo="0" devices="vehroute_26.0 tripinfo_26.0" vType="DEFAULT_VEHTYPE" speedFactor="1.00" vaporized=""/>
    <tripinfo id="117.0" depart="14.00" departLane="" departPos="0.00" departSpeed="55.56" departDelay="14.00" arrival="207.00" arrivalLane="" arrivalPos="489.65" arrivalSpeed="55.55" duration="193.00" routeLength="3408.23" waitingTime="0.00" waitingCount="0" stopTime="0.00" timeLoss="0.00" rerouteNo="0" devices="vehroute_117.0 tripinfo_117.0" vType="DEFAULT_VEHTYPE" speedFactor="1.00" vaporized=""/>
    <tripinfo id="25.0" depart="6.00" departLane="" departPos="0.00" departSpeed="55.57" departDelay="6.00" arrival="207.00" arrivalLane="" arrivalPos="486.13" arrivalSpeed="55.56" duration="201.00" routeLength="3512.31" waitingTime="0.00" waitingCount="0" stopTime="0.00" timeLoss="0.00" rerouteNo="0" devices="vehroute_25.0 tripinfo_25.0" vType="DEFAULT_VEHTYPE" speedFactor="1.00" vaporized=""/>
    <tripinfo id="66.0" depart="0.00" departLane="" departPos="0.00" departSpeed="55.55" departDelay="0.00" arrival="209.00" arrivalLane="" arrivalPos="490.96" arrivalSpeed="55.57" duration="209.00" routeLength="3632.26" waitingTime="0.00" waitingCount="0" stopTime="0.00" timeLoss="0.00" rerouteNo="0" devices="vehroute_66.0 tripinfo_66.0" vType="DEFAULT_VEHTYPE" speedFactor="1.00" vaporized=""/>
    <tripinfo id="86.0" depart="18.00" departLane="" departPos="0.00" departSpeed="55.55" departDelay="18.00" arrival="211.00" arrivalLane="" arrivalPos="487.52" arrivalSpeed="55.56" duration="193.00" routeLength="3408.23" waitingTime="0.00" waitingCount="0" stopTime="0.00" timeLoss="0.00" rerouteNo="0" devices="vehroute_86.0 tripinfo_86.0" vType="DEFAULT_VEHTYPE" speedFactor="1.00" vaporized=""/>
    <tripinfo id="3.1" depart="152.00" departLane="" departPos="0.00" departSpeed="55.57" departDelay="2.00" arrival="212.00" arrivalLane="" arrivalPos="486.13" arrivalSpeed="55.56" duration="60.00" routeLength="1558.62" waitingTime="0.00" waitingCount="0" stopTime="0.00" timeLoss="0.00" rerouteNo="0" devices="vehroute_3.1 tripinfo_3.1" vType="DEFAULT_VEHTYPE" speedFactor="1.00" vaporized=""/>
    <tripinfo id="46.0" depart="4.00" departLane="" departPos="0.00" departSpeed="55.56" departDelay="4.00" arrival="214.00" arrivalLane="" arrivalPos="475.38" arrivalSpeed="55.57" duration="210.00" routeLength="3512.31" waitingTime="6.33" waitingCount="0" stopTime="0.00" timeLoss="8.89" rerouteNo="0" devices="vehroute_46.0 tripinfo_46.0" vType="DEFAULT_VEHTYPE" speedFactor="1.00" vaporized=""/>
    <tripinfo id="94.1" depart="102.00" departLane="" departPos="0.00" departSpeed="55.56" departDelay="2.00" arrival="219.00" arrivalLane="" arrivalPos="491.10" arrivalSpeed="55.55" duration="117.00" routeLength="2353.57" waitingTime="0.00" waitingCount="0" stopTime="0.00" timeLoss="0.00" rerouteNo="0" devices="vehroute_94.1 tripinfo_94.1" vType="DEFAULT_VEHTYPE" speedFactor="1.00" vaporized=""/>
    <tripinfo id="5.0" depart="12.00" departLane="" departPos="0.00" departSpeed="55.57" departDelay="12.00" arrival="221.00" arrivalLane="" arrivalPos="491.10" arrivalSpeed="55.55" duration="209.00" routeLength="3632.26" waitingTime="0.00" waitingCount="0" stopTime="0.00" timeLoss="0.00" rerouteNo="0" devices="vehroute_5.0 tripinfo_5.0" vType="DEFAULT_VEHTYPE" speedFactor="1.00" vaporized=""/>
    <tripinfo id="56.0" depart="2.00" departLane="" departPos="0.00" departSpeed="55.57" departDelay="2.00" arrival="222.00" arrivalLane="" arrivalPos="429.88" arrivalSpeed="55.57" duration="220.00" routeLength="3733.15" waitingTime="0.00" waitingCount="0" stopTime="0.00" timeLoss="0.00" rerouteNo="0" devices="vehroute_56.0 tripinfo_56.0" vType="DEFAULT_VEHTYPE" speedFactor="1.00" vaporized=""/>
    <tripinfo id="49.1" depart="57.00" departLane="" departPos="0.00" departSpeed="55.56" departDelay="0.75" arrival="224.00" arrivalLane="" arrivalPos="491.10" arrivalSpeed="55.55" duration="167.00" routeLength="3045.90" waitingTime="0.00" waitingCount="0" stopTime="0.00" timeLoss="0.00" rerouteNo="0" devices="vehroute_49.1 tripinfo_49.1" vType="DEFAULT_VEHTYPE" speedFactor="1.00" vaporized=""/>
    <tripinfo id="105.0" depart="10.00" departLane="" departPos="0.00" departSpeed="55.56" departDelay="10.00" arrival="225.00" arrivalLane="" arrivalPos="491.10" arrivalSpeed="55.55" duration="215.00" routeLength="3626.46" waitingTime="6.10" waitingCount="0" stopTime="0.00" timeLoss="6.10" rerouteNo="0" devices="vehroute_105.0 tripinfo_105.0" vType="DEFAULT_VEHTYPE" speedFactor="1.00" vaporized=""/>
    <tripinfo id="74.0" depart="16.00" departLane="" departPos="0.00" departSpeed="55.55" departDelay="16.00" arrival="225.00" arrivalLane="" arrivalPos="481.41" arrivalSpeed="55.56" duration="209.00" routeLength="3626.46" waitingTime="0.00" waitingCount="0" stopTime="0.00" timeLoss="0.00" rerouteNo="0" devices="vehroute_74.0 tripinfo_74.0" vType="DEFAULT_VEHTYPE" speedFactor="1.00" vaporized=""/>
    <tripinfo id="108.1" depart="90.00" departLane="" departPos="0.00" departSpeed="55.56" departDelay="0.00" arrival="226.00" arrivalLane="" arrivalPos="487.52" arrivalSpeed="55.56" duration="136.00" routeLength="2608.87" waitingTime="0.00" waitingCount="0" stopTime="0.00" timeLoss="0.00" rerouteNo="0" devices="vehroute_108.1 tripinfo_108.1" vType="DEFAULT_VEHTYPE" speedFactor="1.00" vaporized=""/>
    <tripinfo id="70.1" depart="60.00" departLane="" departPos="0.00" departSpeed="55.55" departDelay="0.00" arrival="227.00" arrivalLane="" arrivalPos="486.13" arrivalSpeed="55.56" duration="167.00" routeLength="3045.90" waitingTime="0.00" waitingCount="0" stopTime="0.00" timeLoss="0.00" rerouteNo="0" devices="vehroute_70.1 tripinfo_70.1" vType="DEFAULT_VEHTYPE" speedFactor="1.00" vaporized=""/>
    <tripinfo id="128.1" depart="90.00" departLane="" departPos="0.00" departSpeed="55.55" departDelay="0.00" arrival="229.00" arrivalLane="" arrivalPos="489.65" arrivalSpeed="55.55" duration="139.00" routeLength="2664.89" waitingTime="0.00" waitingCount="0" stopTime="0.00" timeLoss="0.00" rerouteNo="0" devices="vehroute_128.1 tripinfo_128.1" vType="DEFAULT_VEHTYPE" speedFactor="1.00" vaporized=""/>
    <tripinfo id="109.0" depart="18.00" departLane="" departPos="0.00" departSpeed="55.56" departDelay="18.00" arrival="235.00" arrivalLane="" arrivalPos="494.71" arrivalSpeed="55.55" duration="217.00" routeLength="3732.30" waitingTime="0.00" waitingCount="0" stopTime="0.00" timeLoss="0.00" rerouteNo="0" devices="vehroute_109.0 tripinfo_109.0" vType="DEFAULT_VEHTYPE" speedFactor="1.00" vaporized=""/>
    <tripinfo id="130.0" depart="18.00" departLane="" departPos="0.00" departSpeed="55.55" departDelay="18.00" arrival="235.00" arrivalLane="" arrivalPos="481.41" arrivalSpeed="55.56" duration="217.00" routeLength="3732.30" waitingTime="0.00" waitingCount="0" stopTime="0.00" timeLoss="0.00" rerouteNo="0" devices="vehroute_130.0 tripinfo_130.0" vType="DEFAULT_VEHTYPE" speedFactor="1.00" vaporized=""/>
    <tripinfo id="37.3" depart="143.00" departLane="" departPos="0.00" departSpeed="55.57" departDelay="0.90" arrival="235.00" arrivalLane="" arrivalPos="489.02" arrivalSpeed="55.57" duration="92.00" routeLength="1990.10" waitingTime="0.00" waitingCount="0" stopTime="0.00" timeLoss="0.00" rerouteNo="0" devices="vehroute_37.3 tripinfo_37.3" vType="DEFAULT_VEHTYPE" speedFactor="1.00" vaporized=""/>
    <tripinfo id="0.2" depart="100.00" departLane="" departPos="0.00" departSpeed="55.57" departDelay="0.00" arrival="237.00" arrivalLane="" arrivalPos="429.88" arrivalSpeed="55.57" duration="137.00" routeLength="2584.63" waitingTime="0.00" waitingCount="0" stopTime="0.00" timeLoss="0.00" rerouteNo="0" devices="vehroute_0.2 tripinfo_0.2" vType="DEFAULT_VEHTYPE" speedFactor="1.00" vaporized=""/>
    <tripinfo id="14.1" depart="60.00" departLane="" departPos="0.00" departSpeed="55.57" departDelay="0.00" arrival="239.00" arrivalLane="" arrivalPos="486.13" arrivalSpeed="55.56" duration="179.00" routeLength="3161.33" waitingTime="0.00" waitingCount="0" stopTime="0.00" timeLoss="0.00" rerouteNo="0" devices="vehroute_14.1 tripinfo_14.1" vType="DEFAULT_VEHTYPE" speedFactor="1.00" vaporized=""/>
    <tripinfo id="87.1" depart="100.00" departLane="" departPos="0.00" departSpeed="55.55" departDelay="0.00" arrival="239.00" arrivalLane="" arrivalPos="494.71" arrivalSpeed="55.55" duration="139.00" routeLength="2664.89" waitingTime="0.00" waitingCount="0" stopTime="0.00" timeLoss="0.00" rerouteNo="0" devices="vehroute_87.1 tripinfo_87.1" vType="DEFAULT_VEHTYPE" speedFactor="1.00" vaporized=""/>
    <tripinfo id="39.1" depart="53.00" departLane="" departPos="0.00" departSpeed="55.57" departDelay="0.06" arrival="241.00" arrivalLane="" arrivalPos="489.65" arrivalSpeed="55.55" duration="188.00" routeLength="3290.02" waitingTime="3.00" waitingCount="0" stopTime="0.00" timeLoss="3.00" rerouteNo="0" devices="vehroute_39.1 tripinfo_39.1" vType="DEFAULT_VEHTYPE" speedFactor="1.00" vaporized=""/>