<?xml version="1.0" encoding="UTF-8"?>

<!-- generated on 2022-02-21 10:51:14 by Eclipse SUMO sumo Version 1.10.0
<configuration xmlns:xsi="http://www.w3.org/2001/XMLSchema-instance" xsi:noNamespaceSchemaLocation="http://sumo.dlr.de/xsd/sumoConfiguration.xsd">

    <input>
        <net-file value="static/_8c5129e3-9f38-433e-951f-13a89adf774f/21/14/../../../../input_files/network/sumo-grid-network-od132.net.xml"/>
        <route-files value="static/_8c5129e3-9f38-433e-951f-13a89adf774f/21/14/trips_014.rou.xml"/>
        <additional-files value="static/_8c5129e3-9f38-433e-951f-13a89adf774f/21/14/dua_dump_014.add.xml"/>
    </input>

    <output>
        <vehroute-output value="static/_8c5129e3-9f38-433e-951f-13a89adf774f/21/14/vehRoutes.veh.xml"/>
        <vehroute-output.exit-times value="true"/>
        <vehroute-output.last-route value="true"/>
        <vehroute-output.sorted value="true"/>
        <vehroute-output.write-unfinished value="true"/>
    </output>

    <time>
        <begin value="0.0"/>
        <end value="4500.0"/>
    </time>

    <processing>
        <route-steps value="200"/>
        <no-internal-links value="false"/>
        <time-to-teleport value="4500.0"/>
        <time-to-teleport.highways value="0"/>
        <max-depart-delay value="4500"/>
        <eager-insert value="false"/>
        <default.speeddev value="0"/>
        <pedestrian.model value="nonInteracting"/>
    </processing>

    <report>
        <verbose value="true"/>
        <xml-validation value="never"/>
        <xml-validation.routes value="never"/>
        <no-warnings value="false"/>
        <log value="static/_8c5129e3-9f38-433e-951f-13a89adf774f/21/14/iteration_014.sumo.log"/>
        <no-step-log value="true"/>
    </report>

    <mesoscopic>
        <mesosim value="true"/>
        <meso-junction-control value="true"/>
        <meso-recheck value="0"/>
    </mesoscopic>

    <random_number>
        <random value="false"/>
    </random_number>

</configuration>
-->

<routes xmlns:xsi="http://www.w3.org/2001/XMLSchema-instance" xsi:noNamespaceSchemaLocation="http://sumo.dlr.de/xsd/routes_file.xsd">
    <vehicle id="0.0" depart="0.00" departLane="free" departSpeed="55.57" fromTaz="taz_0" toTaz="taz_1" arrival="137.00">
        <route edges="1_7 7_8 8_2" exitTimes="9.00 129.00 137.00"/>
    </vehicle>

    <vehicle id="100.0" depart="0.00" departLane="free" departSpeed="55.56" fromTaz="taz_9" toTaz="taz_1" arrival="698.00">
        <route edges="32_26 26_20 20_14 14_8 8_2" exitTimes="9.00 126.00 194.00 690.00 698.00"/>
    </vehicle>

    <vehicle id="11.0" depart="0.00" departLane="free" departSpeed="55.57" fromTaz="taz_1" toTaz="taz_0" arrival="137.00">
        <route edges="2_8 8_7 7_1" exitTimes="8.00 128.00 137.00"/>
    </vehicle>

    <vehicle id="110.0" depart="0.00" departLane="free" departSpeed="55.56" fromTaz="taz_10" toTaz="taz_0" arrival="521.00">
        <route edges="33_27 27_21 21_15 15_9 9_8 8_7 7_1" exitTimes="9.00 107.00 247.00 316.00 392.00 512.00 521.00"/>
    </vehicle>

    <vehicle id="121.0" depart="0.00" departLane="free" departSpeed="55.55" fromTaz="taz_11" toTaz="taz_0" arrival="687.00">
        <route edges="34_28 28_27 27_21 21_15 15_9 9_8 8_7 7_1" exitTimes="9.00 90.00 188.00 328.00 436.00 558.00 678.00 687.00"/>
    </vehicle>

    <vehicle id="22.0" depart="0.00" departLane="free" departSpeed="55.57" fromTaz="taz_2" toTaz="taz_0" arrival="160.00">
        <route edges="3_9 9_8 8_7 7_1" exitTimes="9.00 31.00 151.00 160.00"/>
    </vehicle>

    <vehicle id="33.0" depart="0.00" departLane="free" departSpeed="55.57" fromTaz="taz_3" toTaz="taz_0" arrival="278.00">
        <route edges="4_10 10_9 9_8 8_7 7_1" exitTimes="9.00 116.00 138.00 269.00 278.00"/>
    </vehicle>

    <vehicle id="44.0" depart="0.00" departLane="free" departSpeed="55.56" fromTaz="taz_4" toTaz="taz_0" arrival="60.00">
        <route edges="12_13 13_7 7_1" exitTimes="9.00 51.00 60.00"/>
    </vehicle>

    <vehicle id="55.0" depart="0.00" departLane="free" departSpeed="55.57" fromTaz="taz_5" toTaz="taz_0" arrival="383.00">
        <route edges="17_16 16_10 10_9 9_8 8_7 7_1" exitTimes="9.00 83.00 190.00 247.00 374.00 383.00"/>
    </vehicle>

    <vehicle id="66.0" depart="0.00" departLane="free" departSpeed="55.55" fromTaz="taz_6" toTaz="taz_0" arrival="209.00">
        <route edges="18_19 19_13 13_7 7_1" exitTimes="9.00 158.00 200.00 209.00"/>
    </vehicle>

    <vehicle id="77.0" depart="0.00" departLane="free" departSpeed="55.55" fromTaz="taz_7" toTaz="taz_0" arrival="470.00">
        <route edges="23_22 22_16 16_15 15_9 9_8 8_7 7_1" exitTimes="9.00 104.00 214.00 281.00 338.00 461.00 470.00"/>
    </vehicle>

    <vehicle id="88.0" depart="0.00" departLane="free" departSpeed="55.56" fromTaz="taz_8" toTaz="taz_0" arrival="308.00">
        <route edges="31_25 25_19 19_13 13_7 7_1" exitTimes="9.00 108.00 257.00 299.00 308.00"/>
    </vehicle>

    <vehicle id="1.0" depart="2.00" departLane="free" departSpeed="55.57" fromTaz="taz_0" toTaz="taz_2" arrival="162.00">
        <route edges="1_7 7_8 8_9 9_3" exitTimes="11.00 131.00 153.00 162.00"/>
    </vehicle>

    <vehicle id="101.0" depart="2.00" departLane="free" departSpeed="55.56" fromTaz="taz_9" toTaz="taz_2" arrival="727.00">
        <route edges="32_26 26_20 20_14 14_8 8_9 9_3" exitTimes="11.00 138.00 206.00 697.00 719.00 727.00"/>
    </vehicle>

    <vehicle id="111.0" depart="2.00" departLane="free" departSpeed="55.56" fromTaz="taz_10" toTaz="taz_1" arrival="407.00">
        <route edges="33_27 27_21 21_15 15_9 9_8 8_2" exitTimes="11.00 109.00 249.00 323.00 400.00 407.00"/>
    </vehicle>

    <vehicle id="12.0" depart="2.00" departLane="free" departSpeed="55.57" fromTaz="taz_1" toTaz="taz_2" arrival="41.00">
        <route edges="2_8 8_9 9_3" exitTimes="10.00 32.00 41.00"/>
    </vehicle>

    <vehicle id="122.0" depart="2.00" departLane="free" departSpeed="55.55" fromTaz="taz_11" toTaz="taz_1" arrival="568.00">
        <route edges="34_28 28_27 27_21 21_15 15_9 9_8 8_2" exitTimes="11.00 92.00 190.00 330.00 440.00 560.00 568.00"/>
    </vehicle>

    <vehicle id="23.0" depart="2.00" departLane="free" departSpeed="55.57" fromTaz="taz_2" toTaz="taz_1" arrival="41.00">
        <route edges="3_9 9_8 8_2" exitTimes="11.00 33.00 41.00"/>
    </vehicle>

    <vehicle id="34.0" depart="2.00" departLane="free" departSpeed="55.57" fromTaz="taz_3" toTaz="taz_1" arrival="148.00">
        <route edges="4_10 10_9 9_8 8_2" exitTimes="11.00 118.00 140.00 148.00"/>
    </vehicle>

    <vehicle id="45.0" depart="2.00" departLane="free" departSpeed="55.56" fromTaz="taz_4" toTaz="taz_1" arrival="188.00">
        <route edges="12_13 13_7 7_8 8_2" exitTimes="11.00 56.00 181.00 188.00"/>
    </vehicle>

    <vehicle id="56.0" depart="2.00" departLane="free" departSpeed="55.57" fromTaz="taz_5" toTaz="taz_1" arrival="257.00">
        <route edges="17_16 16_10 10_9 9_8 8_2" exitTimes="11.00 85.00 192.00 249.00 257.00"/>
    </vehicle>

    <vehicle id="67.0" depart="2.00" departLane="free" departSpeed="55.55" fromTaz="taz_6" toTaz="taz_1" arrival="574.00">
        <route edges="18_19 19_20 20_14 14_8 8_2" exitTimes="11.00 97.00 165.00 566.00 574.00"/>
    </vehicle>

    <vehicle id="78.0" depart="2.00" departLane="free" departSpeed="55.55" fromTaz="taz_7" toTaz="taz_1" arrival="348.00">
        <route edges="23_22 22_16 16_15 15_9 9_8 8_2" exitTimes="11.00 107.00 217.00 285.00 340.00 348.00"/>
    </vehicle>

    <vehicle id="89.0" depart="2.00" departLane="free" departSpeed="55.56" fromTaz="taz_8" toTaz="taz_1" arrival="725.00">
        <route edges="31_25 25_19 19_20 20_14 14_8 8_2" exitTimes="11.00 111.00 196.00 264.00 717.00 725.00"/>
    </vehicle>

    <vehicle id="10.0" depart="4.00" departLane="free" departSpeed="55.57" fromTaz="taz_0" toTaz="taz_11" arrival="559.00">
        <route edges="1_7 7_8 8_9 9_15 15_21 21_27 27_28 28_34" exitTimes="13.00 133.00 155.00 223.00 362.00 470.00 550.00 559.00"/>
    </vehicle>

    <vehicle id="102.0" depart="4.00" departLane="free" departSpeed="55.56" fromTaz="taz_9" toTaz="taz_3" arrival="837.00">
        <route edges="32_26 26_20 20_14 14_8 8_9 9_10 10_4" exitTimes="13.00 140.00 208.00 699.00 721.00 828.00 837.00"/>
    </vehicle>

    <vehicle id="112.0" depart="4.00" departLane="free" departSpeed="55.56" fromTaz="taz_10" toTaz="taz_2" arrival="333.00">
        <route edges="33_27 27_21 21_15 15_9 9_3" exitTimes="13.00 111.00 251.00 324.00 333.00"/>
    </vehicle>

    <vehicle id="123.0" depart="4.00" departLane="free" departSpeed="55.55" fromTaz="taz_11" toTaz="taz_2" arrival="451.00">
        <route edges="34_28 28_27 27_21 21_15 15_9 9_3" exitTimes="13.00 94.00 192.00 332.00 442.00 451.00"/>
    </vehicle>

    <vehicle id="13.0" depart="4.00" departLane="free" departSpeed="55.57" fromTaz="taz_1" toTaz="taz_3" arrival="150.00">
        <route edges="2_8 8_9 9_10 10_4" exitTimes="12.00 34.00 141.00 150.00"/>
    </vehicle>

    <vehicle id="24.0" depart="4.00" departLane="free" departSpeed="55.57" fromTaz="taz_2" toTaz="taz_3" arrival="128.00">
        <route edges="3_9 9_10 10_4" exitTimes="13.00 120.00 128.00"/>
    </vehicle>

    <vehicle id="35.0" depart="4.00" departLane="free" departSpeed="55.57" fromTaz="taz_3" toTaz="taz_2" arrival="128.00">
        <route edges="4_10 10_9 9_3" exitTimes="13.00 120.00 128.00"/>
    </vehicle>

    <vehicle id="46.0" depart="4.00" departLane="free" departSpeed="55.56" fromTaz="taz_4" toTaz="taz_2" arrival="214.00">
        <route edges="12_13 13_7 7_8 8_9 9_3" exitTimes="13.00 61.00 184.00 206.00 214.00"/>
    </vehicle>

    <vehicle id="57.0" depart="4.00" departLane="free" departSpeed="55.57" fromTaz="taz_5" toTaz="taz_2" arrival="199.00">
        <route edges="17_16 16_15 15_9 9_3" exitTimes="13.00 123.00 191.00 199.00"/>
    </vehicle>

    <vehicle id="68.0" depart="4.00" departLane="free" departSpeed="55.55" fromTaz="taz_6" toTaz="taz_2" arrival="599.00">
        <route edges="18_19 19_20 20_14 14_8 8_9 9_3" exitTimes="13.00 99.00 167.00 569.00 591.00 599.00"/>
    </vehicle>

    <vehicle id="79.0" depart="4.00" departLane="free" departSpeed="55.55" fromTaz="taz_7" toTaz="taz_2" arrival="297.00">
        <route edges="23_22 22_16 16_15 15_9 9_3" exitTimes="13.00 111.00 221.00 289.00 297.00"/>
    </vehicle>

    <vehicle id="90.0" depart="4.00" departLane="free" departSpeed="55.56" fromTaz="taz_8" toTaz="taz_2" arrival="750.00">
        <route edges="31_25 25_19 19_20 20_14 14_8 8_9 9_3" exitTimes="13.00 113.00 198.00 266.00 720.00 742.00 750.00"/>
    </vehicle>

    <vehicle id="103.0" depart="6.00" departLane="free" departSpeed="55.56" fromTaz="taz_9" toTaz="taz_4" arrival="336.00">
        <route edges="32_26 26_20 20_14 14_13 13_12" exitTimes="15.00 142.00 210.00 327.00 336.00"/>
    </vehicle>

    <vehicle id="113.0" depart="6.00" departLane="free" departSpeed="55.56" fromTaz="taz_10" toTaz="taz_3" arrival="374.00">
        <route edges="33_27 27_21 21_22 22_16 16_10 10_4" exitTimes="15.00 113.00 192.00 287.00 365.00 374.00"/>
    </vehicle>

    <vehicle id="124.0" depart="6.00" departLane="free" departSpeed="55.55" fromTaz="taz_11" toTaz="taz_3" arrival="312.00">
        <route edges="34_28 28_22 22_16 16_10 10_4" exitTimes="15.00 136.00 230.00 304.00 312.00"/>
    </vehicle>

    <vehicle id="14.0" depart="6.00" departLane="free" departSpeed="55.57" fromTaz="taz_1" toTaz="taz_4" arrival="187.00">
        <route edges="2_8 8_7 7_13 13_12" exitTimes="14.00 136.00 178.00 187.00"/>
    </vehicle>

    <vehicle id="2.0" depart="6.00" departLane="free" departSpeed="55.57" fromTaz="taz_0" toTaz="taz_3" arrival="273.00">
        <route edges="1_7 7_8 8_9 9_10 10_4" exitTimes="15.00 135.00 157.00 264.00 273.00"/>
    </vehicle>

    <vehicle id="25.0" depart="6.00" departLane="free" departSpeed="55.57" fromTaz="taz_2" toTaz="taz_4" arrival="210.00">
        <route edges="3_9 9_8 8_7 7_13 13_12" exitTimes="15.00 37.00 157.00 202.00 210.00"/>
    </vehicle>

    <vehicle id="36.0" depart="6.00" departLane="free" departSpeed="55.57" fromTaz="taz_3" toTaz="taz_4" arrival="323.00">
        <route edges="4_10 10_9 9_8 8_7 7_13 13_12" exitTimes="15.00 124.00 153.00 272.00 314.00 323.00"/>
    </vehicle>

    <vehicle id="47.0" depart="6.00" departLane="free" departSpeed="55.56" fromTaz="taz_4" toTaz="taz_3" arrival="323.00">
        <route edges="12_13 13_7 7_8 8_9 9_10 10_4" exitTimes="15.00 63.00 186.00 208.00 314.00 323.00"/>
    </vehicle>

    <vehicle id="58.0" depart="6.00" departLane="free" departSpeed="55.57" fromTaz="taz_5" toTaz="taz_3" arrival="98.00">
        <route edges="17_16 16_10 10_4" exitTimes="15.00 89.00 98.00"/>
    </vehicle>

    <vehicle id="69.0" depart="6.00" departLane="free" departSpeed="55.55" fromTaz="taz_6" toTaz="taz_3" arrival="712.00">
        <route edges="18_19 19_20 20_14 14_8 8_9 9_10 10_4" exitTimes="15.00 101.00 169.00 575.00 597.00 704.00 712.00"/>
    </vehicle>

    <vehicle id="80.0" depart="6.00" departLane="free" departSpeed="55.55" fromTaz="taz_7" toTaz="taz_3" arrival="195.00">
        <route edges="23_22 22_16 16_10 10_4" exitTimes="15.00 113.00 186.00 195.00"/>
    </vehicle>

    <vehicle id="91.0" depart="6.00" departLane="free" departSpeed="55.56" fromTaz="taz_8" toTaz="taz_3" arrival="859.00">
        <route edges="31_25 25_19 19_20 20_14 14_8 8_9 9_10 10_4" exitTimes="15.00 114.00 200.00 268.00 722.00 744.00 851.00 859.00"/>
    </vehicle>

    <vehicle id="104.0" depart="8.00" departLane="free" departSpeed="55.56" fromTaz="taz_9" toTaz="taz_5" arrival="407.00">
        <route edges="32_26 26_20 20_14 14_15 15_16 16_17" exitTimes="17.00 143.00 211.00 288.00 398.00 407.00"/>
    </vehicle>

    <vehicle id="114.0" depart="8.00" departLane="free" departSpeed="55.56" fromTaz="taz_10" toTaz="taz_4" arrival="437.00">
        <route edges="33_27 27_26 26_20 20_14 14_13 13_12" exitTimes="17.00 135.00 252.00 320.00 429.00 437.00"/>
    </vehicle>

    <vehicle id="125.0" depart="8.00" departLane="free" departSpeed="55.55" fromTaz="taz_11" toTaz="taz_4" arrival="530.00">
        <route edges="34_28 28_27 27_26 26_20 20_14 14_13 13_12" exitTimes="17.00 98.00 216.00 346.00 416.00 521.00 530.00"/>
    </vehicle>

    <vehicle id="15.0" depart="8.00" departLane="free" departSpeed="55.57" fromTaz="taz_1" toTaz="taz_5" arrival="225.00">
        <route edges="2_8 8_9 9_15 15_16 16_17" exitTimes="16.00 38.00 106.00 216.00 225.00"/>
    </vehicle>

    <vehicle id="26.0" depart="8.00" departLane="free" departSpeed="55.57" fromTaz="taz_2" toTaz="taz_5" arrival="206.00">
        <route edges="3_9 9_10 10_16 16_17" exitTimes="17.00 124.00 198.00 206.00"/>
    </vehicle>

    <vehicle id="3.0" depart="8.00" departLane="free" departSpeed="55.57" fromTaz="taz_0" toTaz="taz_4" arrival="68.00">
        <route edges="1_7 7_13 13_12" exitTimes="17.00 59.00 68.00"/>
    </vehicle>

    <vehicle id="37.0" depart="8.00" departLane="free" departSpeed="55.57" fromTaz="taz_3" toTaz="taz_5" arrival="100.00">
        <route edges="4_10 10_16 16_17" exitTimes="17.00 91.00 100.00"/>
    </vehicle>

    <vehicle id="48.0" depart="8.00" departLane="free" departSpeed="55.56" fromTaz="taz_4" toTaz="taz_5" arrival="322.00">
        <route edges="12_13 13_14 14_15 15_16 16_17" exitTimes="17.00 126.00 198.00 314.00 322.00"/>
    </vehicle>

    <vehicle id="59.0" depart="8.00" departLane="free" departSpeed="55.57" fromTaz="taz_5" toTaz="taz_4" arrival="313.00">
        <route edges="17_16 16_15 15_14 14_13 13_12" exitTimes="17.00 127.00 199.00 305.00 313.00"/>
    </vehicle>

    <vehicle id="70.0" depart="8.00" departLane="free" departSpeed="55.55" fromTaz="taz_6" toTaz="taz_4" arrival="175.00">
        <route edges="18_19 19_13 13_12" exitTimes="17.00 166.00 175.00"/>
    </vehicle>

    <vehicle id="81.0" depart="8.00" departLane="free" departSpeed="55.55" fromTaz="taz_7" toTaz="taz_4" arrival="1032.00">
        <route edges="23_22 22_16 16_15 15_14 14_13 13_12" exitTimes="17.00 114.00 253.00 918.00 1023.00 1032.00"/>
    </vehicle>

    <vehicle id="92.0" depart="8.00" departLane="free" departSpeed="55.56" fromTaz="taz_8" toTaz="taz_4" arrival="277.00">
        <route edges="31_25 25_19 19_13 13_12" exitTimes="17.00 119.00 268.00 277.00"/>
    </vehicle>

    <vehicle id="105.0" depart="10.00" departLane="free" departSpeed="55.56" fromTaz="taz_9" toTaz="taz_6" arrival="222.00">
        <route edges="32_26 26_25 25_19 19_18" exitTimes="19.00 112.00 213.00 222.00"/>
    </vehicle>

    <vehicle id="115.0" depart="10.00" departLane="free" departSpeed="55.56" fromTaz="taz_10" toTaz="taz_5" arrival="297.00">
        <route edges="33_27 27_21 21_22 22_16 16_17" exitTimes="19.00 117.00 194.00 288.00 297.00"/>
    </vehicle>

    <vehicle id="126.0" depart="10.00" departLane="free" departSpeed="55.55" fromTaz="taz_11" toTaz="taz_5" arrival="243.00">
        <route edges="34_28 28_22 22_16 16_17" exitTimes="19.00 140.00 234.00 243.00"/>
    </vehicle>

    <vehicle id="16.0" depart="10.00" departLane="free" departSpeed="55.57" fromTaz="taz_1" toTaz="taz_6" arrival="283.00">
        <route edges="2_8 8_14 14_20 20_19 19_18" exitTimes="18.00 119.00 187.00 274.00 283.00"/>
    </vehicle>

    <vehicle id="27.0" depart="10.00" departLane="free" departSpeed="55.57" fromTaz="taz_2" toTaz="taz_6" arrival="342.00">
        <route edges="3_9 9_8 8_14 14_20 20_19 19_18" exitTimes="19.00 41.00 142.00 246.00 334.00 342.00"/>
    </vehicle>

    <vehicle id="38.0" depart="10.00" departLane="free" departSpeed="55.57" fromTaz="taz_3" toTaz="taz_6" arrival="418.00">
        <route edges="4_10 10_9 9_8 8_14 14_20 20_19 19_18" exitTimes="19.00 126.00 155.00 256.00 324.00 409.00 418.00"/>
    </vehicle>

    <vehicle id="4.0" depart="10.00" departLane="free" departSpeed="55.57" fromTaz="taz_0" toTaz="taz_5" arrival="350.00">
        <route edges="1_7 7_8 8_9 9_15 15_16 16_17" exitTimes="19.00 139.00 161.00 229.00 342.00 350.00"/>
    </vehicle>

    <vehicle id="49.0" depart="10.00" departLane="free" departSpeed="55.56" fromTaz="taz_4" toTaz="taz_6" arrival="177.00">
        <route edges="12_13 13_19 19_18" exitTimes="19.00 168.00 177.00"/>
    </vehicle>

    <vehicle id="60.0" depart="10.00" departLane="free" departSpeed="55.57" fromTaz="taz_5" toTaz="taz_6" arrival="408.00">
        <route edges="17_16 16_15 15_14 14_20 20_19 19_18" exitTimes="19.00 129.00 235.00 307.00 400.00 408.00"/>
    </vehicle>

    <vehicle id="71.0" depart="10.00" departLane="free" departSpeed="55.55" fromTaz="taz_6" toTaz="taz_5" arrival="373.00">
        <route edges="18_19 19_20 20_14 14_15 15_16 16_17" exitTimes="19.00 105.00 173.00 254.00 364.00 373.00"/>
    </vehicle>

    <vehicle id="82.0" depart="10.00" departLane="free" departSpeed="55.55" fromTaz="taz_7" toTaz="taz_5" arrival="125.00">
        <route edges="23_22 22_16 16_17" exitTimes="19.00 116.00 125.00"/>
    </vehicle>

    <vehicle id="93.0" depart="10.00" departLane="free" departSpeed="55.56" fromTaz="taz_8" toTaz="taz_5" arrival="526.00">
        <route edges="31_25 25_19 19_20 20_14 14_15 15_16 16_17" exitTimes="19.00 121.00 206.00 274.00 376.00 517.00 526.00"/>
    </vehicle>

    <vehicle id="106.0" depart="12.00" departLane="free" departSpeed="55.56" fromTaz="taz_9" toTaz="taz_7" arrival="327.00">
        <route edges="32_26 26_27 27_21 21_22 22_23" exitTimes="21.00 141.00 239.00 318.00 327.00"/>
    </vehicle>

    <vehicle id="116.0" depart="12.00" departLane="free" departSpeed="55.56" fromTaz="taz_10" toTaz="taz_6" arrival="340.00">
        <route edges="33_27 27_26 26_25 25_19 19_18" exitTimes="21.00 140.00 233.00 331.00 340.00"/>
    </vehicle>

    <vehicle id="127.0" depart="12.00" departLane="free" departSpeed="55.55" fromTaz="taz_11" toTaz="taz_6" arrival="423.00">
        <route edges="34_28 28_27 27_26 26_25 25_19 19_18" exitTimes="21.00 105.00 223.00 315.00 414.00 423.00"/>
    </vehicle>

    <vehicle id="17.0" depart="12.00" departLane="free" departSpeed="55.57" fromTaz="taz_1" toTaz="taz_7" arrival="322.00">
        <route edges="2_8 8_9 9_15 15_16 16_22 22_23" exitTimes="20.00 42.00 110.00 220.00 313.00 322.00"/>
    </vehicle>

    <vehicle id="28.0" depart="12.00" departLane="free" departSpeed="55.57" fromTaz="taz_2" toTaz="taz_7" arrival="304.00">
        <route edges="3_9 9_10 10_16 16_22 22_23" exitTimes="21.00 128.00 202.00 295.00 304.00"/>
    </vehicle>

    <vehicle id="39.0" depart="12.00" departLane="free" departSpeed="55.57" fromTaz="taz_3" toTaz="taz_7" arrival="216.00">
        <route edges="4_10 10_16 16_22 22_23" exitTimes="21.00 95.00 207.00 216.00"/>
    </vehicle>

    <vehicle id="5.0" depart="12.00" departLane="free" departSpeed="55.57" fromTaz="taz_0" toTaz="taz_6" arrival="221.00">
        <route edges="1_7 7_13 13_19 19_18" exitTimes="21.00 63.00 212.00 221.00"/>
    </vehicle>

    <vehicle id="50.0" depart="12.00" departLane="free" departSpeed="55.56" fromTaz="taz_4" toTaz="taz_7" arrival="424.00">
        <route edges="12_13 13_14 14_15 15_16 16_22 22_23" exitTimes="21.00 127.00 199.00 315.00 415.00 424.00"/>
    </vehicle>

    <vehicle id="61.0" depart="12.00" departLane="free" departSpeed="55.57" fromTaz="taz_5" toTaz="taz_7" arrival="124.00">
        <route edges="17_16 16_22 22_23" exitTimes="21.00 115.00 124.00"/>
    </vehicle>

    <vehicle id="72.0" depart="12.00" departLane="free" departSpeed="55.55" fromTaz="taz_6" toTaz="taz_7" arrival="356.00">
        <route edges="18_19 19_20 20_21 21_22 22_23" exitTimes="21.00 107.00 270.00 347.00 356.00"/>
    </vehicle>

    <vehicle id="83.0" depart="12.00" departLane="free" departSpeed="55.55" fromTaz="taz_7" toTaz="taz_6" arrival="375.00">
        <route edges="23_22 22_21 21_20 20_19 19_18" exitTimes="21.00 98.00 267.00 366.00 375.00"/>
    </vehicle>

    <vehicle id="94.0" depart="12.00" departLane="free" departSpeed="55.56" fromTaz="taz_8" toTaz="taz_6" arrival="132.00">
        <route edges="31_25 25_19 19_18" exitTimes="21.00 123.00 132.00"/>
    </vehicle>

    <vehicle id="107.0" depart="14.00" departLane="free" departSpeed="55.56" fromTaz="taz_9" toTaz="taz_8" arrival="124.00">
        <route edges="32_26 26_25 25_31" exitTimes="23.00 116.00 124.00"/>
    </vehicle>

    <vehicle id="117.0" depart="14.00" departLane="free" departSpeed="55.56" fromTaz="taz_10" toTaz="taz_7" arrival="207.00">
        <route edges="33_27 27_21 21_22 22_23" exitTimes="23.00 121.00 198.00 207.00"/>
    </vehicle>

    <vehicle id="128.0" depart="14.00" departLane="free" departSpeed="55.55" fromTaz="taz_11" toTaz="taz_7" arrival="153.00">
        <route edges="34_28 28_22 22_23" exitTimes="23.00 144.00 153.00"/>
    </vehicle>

    <vehicle id="18.0" depart="14.00" departLane="free" departSpeed="55.57" fromTaz="taz_1" toTaz="taz_8" arrival="384.00">
        <route edges="2_8 8_14 14_20 20_19 19_25 25_31" exitTimes="22.00 123.00 191.00 277.00 375.00 384.00"/>
    </vehicle>

    <vehicle id="29.0" depart="14.00" departLane="free" departSpeed="55.57" fromTaz="taz_2" toTaz="taz_8" arrival="443.00">
        <route edges="3_9 9_8 8_14 14_20 20_19 19_25 25_31" exitTimes="23.00 45.00 146.00 248.00 335.00 434.00 443.00"/>
    </vehicle>

    <vehicle id="40.0" depart="14.00" departLane="free" departSpeed="55.57" fromTaz="taz_3" toTaz="taz_8" arrival="532.00">
        <route edges="4_10 10_9 9_8 8_14 14_20 20_19 19_25 25_31" exitTimes="23.00 130.00 164.00 265.00 339.00 424.00 523.00 532.00"/>
    </vehicle>

    <vehicle id="51.0" depart="14.00" departLane="free" departSpeed="55.56" fromTaz="taz_4" toTaz="taz_8" arrival="280.00">
        <route edges="12_13 13_19 19_25 25_31" exitTimes="23.00 172.00 271.00 280.00"/>
    </vehicle>

    <vehicle id="6.0" depart="14.00" departLane="free" departSpeed="55.57" fromTaz="taz_0" toTaz="taz_7" arrival="451.00">
        <route edges="1_7 7_8 8_9 9_15 15_16 16_22 22_23" exitTimes="23.00 146.00 168.00 235.00 346.00 442.00 451.00"/>
    </vehicle>

    <vehicle id="62.0" depart="14.00" departLane="free" departSpeed="55.57" fromTaz="taz_5" toTaz="taz_8" arrival="628.00">
        <route edges="17_16 16_15 15_14 14_20 20_19 19_25 25_31" exitTimes="23.00 133.00 359.00 428.00 520.00 619.00 628.00"/>
    </vehicle>

    <vehicle id="73.0" depart="14.00" departLane="free" departSpeed="55.55" fromTaz="taz_6" toTaz="taz_8" arrival="131.00">
        <route edges="18_19 19_25 25_31" exitTimes="23.00 122.00 131.00"/>
    </vehicle>

    <vehicle id="84.0" depart="14.00" departLane="free" departSpeed="55.55" fromTaz="taz_7" toTaz="taz_8" arrival="425.00">
        <route edges="23_22 22_21 21_27 27_26 26_25 25_31" exitTimes="23.00 100.00 198.00 319.00 416.00 425.00"/>
    </vehicle>

    <vehicle id="95.0" depart="14.00" departLane="free" departSpeed="55.56" fromTaz="taz_8" toTaz="taz_7" arrival="425.00">
        <route edges="31_25 25_26 26_27 27_21 21_22 22_23" exitTimes="23.00 117.00 240.00 338.00 417.00 425.00"/>
    </vehicle>

    <vehicle id="108.0" depart="16.00" departLane="free" departSpeed="55.56" fromTaz="taz_9" toTaz="taz_10" arrival="152.00">
        <route edges="32_26 26_27 27_33" exitTimes="25.00 143.00 152.00"/>
    </vehicle>

    <vehicle id="118.0" depart="16.00" departLane="free" departSpeed="55.56" fromTaz="taz_10" toTaz="taz_8" arrival="246.00">
        <route edges="33_27 27_26 26_25 25_31" exitTimes="25.00 143.00 237.00 246.00"/>
    </vehicle>

    <vehicle id="129.0" depart="16.00" departLane="free" departSpeed="55.55" fromTaz="taz_11" toTaz="taz_8" arrival="326.00">
        <route edges="34_28 28_27 27_26 26_25 25_31" exitTimes="25.00 107.00 225.00 317.00 326.00"/>
    </vehicle>

    <vehicle id="19.0" depart="16.00" departLane="free" departSpeed="55.57" fromTaz="taz_1" toTaz="taz_9" arrival="340.00">
        <route edges="2_8 8_14 14_20 20_26 26_32" exitTimes="24.00 125.00 213.00 332.00 340.00"/>
    </vehicle>

    <vehicle id="30.0" depart="16.00" departLane="free" departSpeed="55.57" fromTaz="taz_2" toTaz="taz_9" arrival="375.00">
        <route edges="3_9 9_8 8_14 14_20 20_26 26_32" exitTimes="25.00 47.00 148.00 250.00 366.00 375.00"/>
    </vehicle>

    <vehicle id="41.0" depart="16.00" departLane="free" departSpeed="55.57" fromTaz="taz_3" toTaz="taz_9" arrival="499.00">
        <route edges="4_10 10_9 9_8 8_14 14_20 20_26 26_32" exitTimes="25.00 138.00 197.00 298.00 369.00 491.00 499.00"/>
    </vehicle>

    <vehicle id="52.0" depart="16.00" departLane="free" departSpeed="55.56" fromTaz="taz_4" toTaz="taz_9" arrival="342.00">
        <route edges="12_13 13_14 14_20 20_26 26_32" exitTimes="25.00 131.00 216.00 333.00 342.00"/>
    </vehicle>

    <vehicle id="63.0" depart="16.00" departLane="free" departSpeed="55.57" fromTaz="taz_5" toTaz="taz_9" arrival="587.00">
        <route edges="17_16 16_15 15_14 14_20 20_26 26_32" exitTimes="25.00 135.00 378.00 462.00 578.00 587.00"/>
    </vehicle>

    <vehicle id="7.0" depart="16.00" departLane="free" departSpeed="55.57" fromTaz="taz_0" toTaz="taz_8" arrival="324.00">
        <route edges="1_7 7_13 13_19 19_25 25_31" exitTimes="25.00 67.00 216.00 315.00 324.00"/>
    </vehicle>

    <vehicle id="74.0" depart="16.00" departLane="free" departSpeed="55.55" fromTaz="taz_6" toTaz="taz_9" arrival="225.00">
        <route edges="18_19 19_25 25_26 26_32" exitTimes="25.00 124.00 216.00 225.00"/>
    </vehicle>

    <vehicle id="85.0" depart="16.00" departLane="free" departSpeed="55.55" fromTaz="taz_7" toTaz="taz_9" arrival="329.00">
        <route edges="23_22 22_21 21_27 27_26 26_32" exitTimes="25.00 102.00 200.00 320.00 329.00"/>
    </vehicle>

    <vehicle id="96.0" depart="16.00" departLane="free" departSpeed="55.56" fromTaz="taz_8" toTaz="taz_9" arrival="127.00">
        <route edges="31_25 25_26 26_32" exitTimes="25.00 119.00 127.00"/>
    </vehicle>

    <vehicle id="109.0" depart="18.00" departLane="free" departSpeed="55.56" fromTaz="taz_9" toTaz="taz_11" arrival="235.00">
        <route edges="32_26 26_27 27_28 28_34" exitTimes="27.00 145.00 226.00 235.00"/>
    </vehicle>

    <vehicle id="119.0" depart="18.00" departLane="free" departSpeed="55.56" fromTaz="taz_10" toTaz="taz_9" arrival="154.00">
        <route edges="33_27 27_26 26_32" exitTimes="27.00 145.00 154.00"/>
    </vehicle>

    <vehicle id="130.0" depart="18.00" departLane="free" departSpeed="55.55" fromTaz="taz_11" toTaz="taz_9" arrival="236.00">
        <route edges="34_28 28_27 27_26 26_32" exitTimes="27.00 109.00 227.00 236.00"/>
    </vehicle>

    <vehicle id="20.0" depart="18.00" departLane="free" departSpeed="55.57" fromTaz="taz_1" toTaz="taz_10" arrival="379.00">
        <route edges="2_8 8_9 9_15 15_21 21_27 27_33" exitTimes="26.00 48.00 116.00 256.00 370.00 379.00"/>
    </vehicle>

    <vehicle id="31.0" depart="18.00" departLane="free" departSpeed="55.57" fromTaz="taz_2" toTaz="taz_10" arrival="354.00">
        <route edges="3_9 9_15 15_21 21_27 27_33" exitTimes="27.00 95.00 234.00 346.00 354.00"/>
    </vehicle>

    <vehicle id="42.0" depart="18.00" departLane="free" departSpeed="55.57" fromTaz="taz_3" toTaz="taz_10" arrival="406.00">
        <route edges="4_10 10_16 16_22 22_21 21_27 27_33" exitTimes="27.00 101.00 213.00 292.00 398.00 406.00"/>
    </vehicle>

    <vehicle id="53.0" depart="18.00" departLane="free" departSpeed="55.56" fromTaz="taz_4" toTaz="taz_10" arrival="466.00">
        <route edges="12_13 13_14 14_20 20_26 26_27 27_33" exitTimes="27.00 133.00 218.00 339.00 457.00 466.00"/>
    </vehicle>

    <vehicle id="64.0" depart="18.00" departLane="free" departSpeed="55.57" fromTaz="taz_5" toTaz="taz_10" arrival="305.00">
        <route edges="17_16 16_22 22_21 21_27 27_33" exitTimes="27.00 121.00 198.00 296.00 305.00"/>
    </vehicle>

    <vehicle id="75.0" depart="18.00" departLane="free" departSpeed="55.55" fromTaz="taz_6" toTaz="taz_10" arrival="349.00">
        <route edges="18_19 19_25 25_26 26_27 27_33" exitTimes="27.00 130.00 222.00 340.00 349.00"/>
    </vehicle>
