<?xml version="1.0" encoding="UTF-8"?>

<!-- generated on 2022-02-21 11:43:58 by Eclipse SUMO sumo Version 1.10.0
<configuration xmlns:xsi="http://www.w3.org/2001/XMLSchema-instance" xsi:noNamespaceSchemaLocation="http://sumo.dlr.de/xsd/sumoConfiguration.xsd">

    <input>
        <net-file value="static/_8c5129e3-9f38-433e-951f-13a89adf774f/181/14/../../../../input_files/network/sumo-grid-network-od132.net.xml"/>
        <route-files value="static/_8c5129e3-9f38-433e-951f-13a89adf774f/181/14/trips_014.rou.xml"/>
        <additional-files value="static/_8c5129e3-9f38-433e-951f-13a89adf774f/181/14/dua_dump_014.add.xml"/>
    </input>

    <output>
        <vehroute-output value="static/_8c5129e3-9f38-433e-951f-13a89adf774f/181/14/vehRoutes.veh.xml"/>
        <vehroute-output.exit-times value="true"/>
        <vehroute-output.last-route value="true"/>
        <vehroute-output.sorted value="true"/>
        <vehroute-output.write-unfinished value="true"/>
    </output>

    <time>
        <begin value="0.0"/>
        <end value="4500.0"/>
    </time>

    <processing>
        <route-steps value="200"/>
        <no-internal-links value="false"/>
        <time-to-teleport value="4500.0"/>
        <time-to-teleport.highways value="0"/>
        <max-depart-delay value="4500"/>
        <eager-insert value="false"/>
        <default.speeddev value="0"/>
        <pedestrian.model value="nonInteracting"/>
    </processing>

    <report>
        <verbose value="true"/>
        <xml-validation value="never"/>
        <xml-validation.routes value="never"/>
        <no-warnings value="false"/>
        <log value="static/_8c5129e3-9f38-433e-951f-13a89adf774f/181/14/iteration_014.sumo.log"/>
        <no-step-log value="true"/>
    </report>

    <mesoscopic>
        <mesosim value="true"/>
        <meso-junction-control value="true"/>
        <meso-recheck value="0"/>
    </mesoscopic>

    <random_number>
        <random value="false"/>
    </random_number>

</configuration>
-->

<routes xmlns:xsi="http://www.w3.org/2001/XMLSchema-instance" xsi:noNamespaceSchemaLocation="http://sumo.dlr.de/xsd/routes_file.xsd">
    <vehicle id="0.0" depart="0.00" departLane="free" departSpeed="55.57" fromTaz="taz_0" toTaz="taz_1" arrival="139.00">
        <route edges="1_7 7_8 8_2" exitTimes="9.00 131.00 139.00"/>
    </vehicle>

    <vehicle id="100.0" depart="0.00" departLane="free" departSpeed="55.56" fromTaz="taz_9" toTaz="taz_1" arrival="302.00">
        <route edges="32_26 26_20 20_14 14_8 8_2" exitTimes="9.00 126.00 194.00 295.00 302.00"/>
    </vehicle>

    <vehicle id="11.0" depart="0.00" departLane="free" departSpeed="55.57" fromTaz="taz_1" toTaz="taz_0" arrival="137.00">
        <route edges="2_8 8_7 7_1" exitTimes="8.00 128.00 137.00"/>
    </vehicle>

    <vehicle id="110.0" depart="0.00" departLane="free" departSpeed="55.56" fromTaz="taz_10" toTaz="taz_0" arrival="483.00">
        <route edges="33_27 27_21 21_15 15_9 9_8 8_7 7_1" exitTimes="9.00 107.00 247.00 326.00 348.00 474.00 483.00"/>
    </vehicle>

    <vehicle id="121.0" depart="0.00" departLane="free" departSpeed="55.55" fromTaz="taz_11" toTaz="taz_0" arrival="586.00">
        <route edges="34_28 28_27 27_21 21_15 15_9 9_8 8_7 7_1" exitTimes="9.00 93.00 191.00 331.00 402.00 445.00 577.00 586.00"/>
    </vehicle>

    <vehicle id="22.0" depart="0.00" departLane="free" departSpeed="55.57" fromTaz="taz_2" toTaz="taz_0" arrival="160.00">
        <route edges="3_9 9_8 8_7 7_1" exitTimes="9.00 31.00 151.00 160.00"/>
    </vehicle>

    <vehicle id="33.0" depart="0.00" departLane="free" departSpeed="55.57" fromTaz="taz_3" toTaz="taz_0" arrival="281.00">
        <route edges="4_10 10_9 9_8 8_7 7_1" exitTimes="9.00 116.00 152.00 272.00 281.00"/>
    </vehicle>

    <vehicle id="44.0" depart="0.00" departLane="free" departSpeed="55.56" fromTaz="taz_4" toTaz="taz_0" arrival="60.00">
        <route edges="12_13 13_7 7_1" exitTimes="9.00 51.00 60.00"/>
    </vehicle>

    <vehicle id="55.0" depart="0.00" departLane="free" departSpeed="55.57" fromTaz="taz_5" toTaz="taz_0" arrival="341.00">
        <route edges="17_16 16_10 10_9 9_8 8_7 7_1" exitTimes="9.00 83.00 190.00 212.00 332.00 341.00"/>
    </vehicle>

    <vehicle id="66.0" depart="0.00" departLane="free" departSpeed="55.55" fromTaz="taz_6" toTaz="taz_0" arrival="210.00">
        <route edges="18_19 19_13 13_7 7_1" exitTimes="9.00 159.00 201.00 210.00"/>
    </vehicle>

    <vehicle id="77.0" depart="0.00" departLane="free" departSpeed="55.55" fromTaz="taz_7" toTaz="taz_0" arrival="450.00">
        <route edges="23_22 22_16 16_15 15_9 9_8 8_7 7_1" exitTimes="9.00 104.00 214.00 285.00 313.00 441.00 450.00"/>
    </vehicle>

    <vehicle id="88.0" depart="0.00" departLane="free" departSpeed="55.56" fromTaz="taz_8" toTaz="taz_0" arrival="313.00">
        <route edges="31_25 25_19 19_13 13_7 7_1" exitTimes="9.00 113.00 262.00 304.00 313.00"/>
    </vehicle>

    <vehicle id="1.0" depart="2.00" departLane="free" departSpeed="55.57" fromTaz="taz_0" toTaz="taz_2" arrival="163.00">
        <route edges="1_7 7_8 8_9 9_3" exitTimes="11.00 133.00 155.00 163.00"/>
    </vehicle>

    <vehicle id="101.0" depart="2.00" departLane="free" departSpeed="55.56" fromTaz="taz_9" toTaz="taz_2" arrival="345.00">
        <route edges="32_26 26_20 20_14 14_8 8_9 9_3" exitTimes="11.00 136.00 204.00 315.00 337.00 345.00"/>
    </vehicle>

    <vehicle id="111.0" depart="2.00" departLane="free" departSpeed="55.56" fromTaz="taz_10" toTaz="taz_1" arrival="358.00">
        <route edges="33_27 27_21 21_15 15_9 9_8 8_2" exitTimes="11.00 109.00 249.00 328.00 350.00 358.00"/>
    </vehicle>

    <vehicle id="12.0" depart="2.00" departLane="free" departSpeed="55.57" fromTaz="taz_1" toTaz="taz_2" arrival="41.00">
        <route edges="2_8 8_9 9_3" exitTimes="10.00 32.00 41.00"/>
    </vehicle>

    <vehicle id="122.0" depart="2.00" departLane="free" departSpeed="55.55" fromTaz="taz_11" toTaz="taz_1" arrival="498.00">
        <route edges="34_28 28_27 27_21 21_15 15_9 9_8 8_2" exitTimes="11.00 97.00 195.00 335.00 433.00 491.00 498.00"/>
    </vehicle>

    <vehicle id="23.0" depart="2.00" departLane="free" departSpeed="55.57" fromTaz="taz_2" toTaz="taz_1" arrival="41.00">
        <route edges="3_9 9_8 8_2" exitTimes="11.00 33.00 41.00"/>
    </vehicle>

    <vehicle id="34.0" depart="2.00" departLane="free" departSpeed="55.57" fromTaz="taz_3" toTaz="taz_1" arrival="162.00">
        <route edges="4_10 10_9 9_8 8_2" exitTimes="11.00 118.00 154.00 162.00"/>
    </vehicle>

    <vehicle id="45.0" depart="2.00" departLane="free" departSpeed="55.56" fromTaz="taz_4" toTaz="taz_1" arrival="205.00">
        <route edges="12_13 13_7 7_8 8_2" exitTimes="11.00 57.00 197.00 205.00"/>
    </vehicle>

    <vehicle id="56.0" depart="2.00" departLane="free" departSpeed="55.57" fromTaz="taz_5" toTaz="taz_1" arrival="226.00">
        <route edges="17_16 16_10 10_9 9_8 8_2" exitTimes="11.00 85.00 195.00 219.00 226.00"/>
    </vehicle>

    <vehicle id="67.0" depart="2.00" departLane="free" departSpeed="55.55" fromTaz="taz_6" toTaz="taz_1" arrival="277.00">
        <route edges="18_19 19_20 20_14 14_8 8_2" exitTimes="11.00 97.00 165.00 269.00 277.00"/>
    </vehicle>

    <vehicle id="78.0" depart="2.00" departLane="free" departSpeed="55.55" fromTaz="taz_7" toTaz="taz_1" arrival="322.00">
        <route edges="23_22 22_16 16_15 15_9 9_8 8_2" exitTimes="11.00 110.00 220.00 288.00 315.00 322.00"/>
    </vehicle>

    <vehicle id="89.0" depart="2.00" departLane="free" departSpeed="55.56" fromTaz="taz_8" toTaz="taz_1" arrival="398.00">
        <route edges="31_25 25_19 19_20 20_14 14_8 8_2" exitTimes="11.00 119.00 204.00 272.00 391.00 398.00"/>
    </vehicle>

    <vehicle id="10.0" depart="4.00" departLane="free" departSpeed="55.57" fromTaz="taz_0" toTaz="taz_11" arrival="553.00">
        <route edges="1_7 7_8 8_9 9_15 15_21 21_27 27_28 28_34" exitTimes="13.00 134.00 156.00 224.00 364.00 463.00 544.00 553.00"/>
    </vehicle>

    <vehicle id="102.0" depart="4.00" departLane="free" departSpeed="55.56" fromTaz="taz_9" toTaz="taz_3" arrival="456.00">
        <route edges="32_26 26_20 20_14 14_8 8_9 9_10 10_4" exitTimes="13.00 138.00 206.00 316.00 341.00 448.00 456.00"/>
    </vehicle>

    <vehicle id="112.0" depart="4.00" departLane="free" departSpeed="55.56" fromTaz="taz_10" toTaz="taz_2" arrival="338.00">
        <route edges="33_27 27_21 21_15 15_9 9_3" exitTimes="13.00 111.00 251.00 330.00 338.00"/>
    </vehicle>

    <vehicle id="123.0" depart="4.00" departLane="free" departSpeed="55.55" fromTaz="taz_11" toTaz="taz_2" arrival="443.00">
        <route edges="34_28 28_27 27_21 21_15 15_9 9_3" exitTimes="13.00 99.00 197.00 337.00 435.00 443.00"/>
    </vehicle>

    <vehicle id="13.0" depart="4.00" departLane="free" departSpeed="55.57" fromTaz="taz_1" toTaz="taz_3" arrival="150.00">
        <route edges="2_8 8_9 9_10 10_4" exitTimes="12.00 34.00 141.00 150.00"/>
    </vehicle>

    <vehicle id="24.0" depart="4.00" departLane="free" departSpeed="55.57" fromTaz="taz_2" toTaz="taz_3" arrival="128.00">
        <route edges="3_9 9_10 10_4" exitTimes="13.00 120.00 128.00"/>
    </vehicle>

    <vehicle id="35.0" depart="4.00" departLane="free" departSpeed="55.57" fromTaz="taz_3" toTaz="taz_2" arrival="129.00">
        <route edges="4_10 10_9 9_3" exitTimes="13.00 121.00 129.00"/>
    </vehicle>

    <vehicle id="46.0" depart="4.00" departLane="free" departSpeed="55.56" fromTaz="taz_4" toTaz="taz_2" arrival="229.00">
        <route edges="12_13 13_7 7_8 8_9 9_3" exitTimes="13.00 59.00 199.00 221.00 229.00"/>
    </vehicle>

    <vehicle id="57.0" depart="4.00" departLane="free" departSpeed="55.57" fromTaz="taz_5" toTaz="taz_2" arrival="199.00">
        <route edges="17_16 16_15 15_9 9_3" exitTimes="13.00 123.00 191.00 199.00"/>
    </vehicle>

    <vehicle id="68.0" depart="4.00" departLane="free" departSpeed="55.55" fromTaz="taz_6" toTaz="taz_2" arrival="301.00">
        <route edges="18_19 19_20 20_14 14_8 8_9 9_3" exitTimes="13.00 99.00 167.00 271.00 293.00 301.00"/>
    </vehicle>

    <vehicle id="79.0" depart="4.00" departLane="free" departSpeed="55.55" fromTaz="taz_7" toTaz="taz_2" arrival="298.00">
        <route edges="23_22 22_16 16_15 15_9 9_3" exitTimes="13.00 112.00 222.00 289.00 298.00"/>
    </vehicle>

    <vehicle id="90.0" depart="4.00" departLane="free" departSpeed="55.56" fromTaz="taz_8" toTaz="taz_2" arrival="423.00">
        <route edges="31_25 25_19 19_20 20_14 14_8 8_9 9_3" exitTimes="13.00 123.00 208.00 276.00 392.00 414.00 423.00"/>
    </vehicle>

    <vehicle id="103.0" depart="6.00" departLane="free" departSpeed="55.56" fromTaz="taz_9" toTaz="taz_4" arrival="322.00">
        <route edges="32_26 26_20 20_14 14_13 13_12" exitTimes="15.00 140.00 208.00 313.00 322.00"/>
    </vehicle>

    <vehicle id="113.0" depart="6.00" departLane="free" departSpeed="55.56" fromTaz="taz_10" toTaz="taz_3" arrival="367.00">
        <route edges="33_27 27_21 21_22 22_16 16_10 10_4" exitTimes="15.00 113.00 190.00 284.00 359.00 367.00"/>
    </vehicle>

    <vehicle id="124.0" depart="6.00" departLane="free" departSpeed="55.55" fromTaz="taz_11" toTaz="taz_3" arrival="312.00">
        <route edges="34_28 28_22 22_16 16_10 10_4" exitTimes="15.00 136.00 230.00 304.00 312.00"/>
    </vehicle>

    <vehicle id="15.0" depart="6.00" departLane="free" departSpeed="55.57" fromTaz="taz_1" toTaz="taz_5" arrival="231.00">
        <route edges="2_8 8_9 9_15 15_16 16_17" exitTimes="14.00 36.00 104.00 223.00 231.00"/>
    </vehicle>

    <vehicle id="2.0" depart="6.00" departLane="free" departSpeed="55.57" fromTaz="taz_0" toTaz="taz_3" arrival="282.00">
        <route edges="1_7 7_8 8_9 9_10 10_4" exitTimes="15.00 141.00 167.00 274.00 282.00"/>
    </vehicle>

    <vehicle id="25.0" depart="6.00" departLane="free" departSpeed="55.57" fromTaz="taz_2" toTaz="taz_4" arrival="207.00">
        <route edges="3_9 9_8 8_7 7_13 13_12" exitTimes="15.00 37.00 157.00 199.00 207.00"/>
    </vehicle>

    <vehicle id="36.0" depart="6.00" departLane="free" departSpeed="55.57" fromTaz="taz_3" toTaz="taz_4" arrival="326.00">
        <route edges="4_10 10_9 9_8 8_7 7_13 13_12" exitTimes="15.00 123.00 156.00 275.00 317.00 326.00"/>
    </vehicle>

    <vehicle id="47.0" depart="6.00" departLane="free" departSpeed="55.56" fromTaz="taz_4" toTaz="taz_3" arrival="340.00">
        <route edges="12_13 13_7 7_8 8_9 9_10 10_4" exitTimes="15.00 60.00 203.00 225.00 332.00 340.00"/>
    </vehicle>

    <vehicle id="58.0" depart="6.00" departLane="free" departSpeed="55.57" fromTaz="taz_5" toTaz="taz_3" arrival="98.00">
        <route edges="17_16 16_10 10_4" exitTimes="15.00 89.00 98.00"/>
    </vehicle>

    <vehicle id="69.0" depart="6.00" departLane="free" departSpeed="55.55" fromTaz="taz_6" toTaz="taz_3" arrival="410.00">
        <route edges="18_19 19_20 20_14 14_8 8_9 9_10 10_4" exitTimes="15.00 101.00 169.00 272.00 294.00 401.00 410.00"/>
    </vehicle>

    <vehicle id="80.0" depart="6.00" departLane="free" departSpeed="55.55" fromTaz="taz_7" toTaz="taz_3" arrival="200.00">
        <route edges="23_22 22_16 16_10 10_4" exitTimes="15.00 118.00 192.00 200.00"/>
    </vehicle>

    <vehicle id="91.0" depart="6.00" departLane="free" departSpeed="55.56" fromTaz="taz_8" toTaz="taz_3" arrival="535.00">
        <route edges="31_25 25_19 19_20 20_14 14_8 8_9 9_10 10_4" exitTimes="15.00 124.00 210.00 278.00 398.00 420.00 527.00 535.00"/>
    </vehicle>

    <vehicle id="104.0" depart="8.00" departLane="free" departSpeed="55.56" fromTaz="taz_9" toTaz="taz_5" arrival="431.00">
        <route edges="32_26 26_20 20_14 14_15 15_16 16_17" exitTimes="17.00 141.00 209.00 281.00 422.00 431.00"/>
    </vehicle>

    <vehicle id="114.0" depart="8.00" departLane="free" departSpeed="55.56" fromTaz="taz_10" toTaz="taz_4" arrival="436.00">
        <route edges="33_27 27_26 26_20 20_14 14_13 13_12" exitTimes="17.00 135.00 254.00 322.00 427.00 436.00"/>
    </vehicle>

    <vehicle id="125.0" depart="8.00" departLane="free" departSpeed="55.55" fromTaz="taz_11" toTaz="taz_4" arrival="537.00">
        <route edges="34_28 28_27 27_26 26_20 20_14 14_13 13_12" exitTimes="17.00 100.00 218.00 350.00 418.00 528.00 537.00"/>
    </vehicle>

    <vehicle id="16.0" depart="8.00" departLane="free" departSpeed="55.57" fromTaz="taz_1" toTaz="taz_6" arrival="288.00">
        <route edges="2_8 8_14 14_20 20_19 19_18" exitTimes="16.00 117.00 185.00 279.00 288.00"/>
    </vehicle>

    <vehicle id="26.0" depart="8.00" departLane="free" departSpeed="55.57" fromTaz="taz_2" toTaz="taz_5" arrival="206.00">
        <route edges="3_9 9_10 10_16 16_17" exitTimes="17.00 124.00 198.00 206.00"/>
    </vehicle>

    <vehicle id="3.0" depart="8.00" departLane="free" departSpeed="55.57" fromTaz="taz_0" toTaz="taz_4" arrival="68.00">
        <route edges="1_7 7_13 13_12" exitTimes="17.00 59.00 68.00"/>
    </vehicle>

    <vehicle id="37.0" depart="8.00" departLane="free" departSpeed="55.57" fromTaz="taz_3" toTaz="taz_5" arrival="100.00">
        <route edges="4_10 10_16 16_17" exitTimes="17.00 91.00 100.00"/>
    </vehicle>

    <vehicle id="48.0" depart="8.00" departLane="free" departSpeed="55.56" fromTaz="taz_4" toTaz="taz_5" arrival="314.00">
        <route edges="12_13 13_14 14_15 15_16 16_17" exitTimes="17.00 124.00 196.00 306.00 314.00"/>
    </vehicle>

    <vehicle id="59.0" depart="8.00" departLane="free" departSpeed="55.57" fromTaz="taz_5" toTaz="taz_4" arrival="333.00">
        <route edges="17_16 16_15 15_14 14_13 13_12" exitTimes="17.00 127.00 219.00 325.00 333.00"/>
    </vehicle>

    <vehicle id="70.0" depart="8.00" departLane="free" departSpeed="55.55" fromTaz="taz_6" toTaz="taz_4" arrival="175.00">
        <route edges="18_19 19_13 13_12" exitTimes="17.00 166.00 175.00"/>
    </vehicle>

    <vehicle id="81.0" depart="8.00" departLane="free" departSpeed="55.55" fromTaz="taz_7" toTaz="taz_4" arrival="1254.00">
        <route edges="23_22 22_16 16_15 15_14 14_13 13_12" exitTimes="17.00 120.00 231.00 1138.00 1245.00 1254.00"/>
    </vehicle>

    <vehicle id="92.0" depart="8.00" departLane="free" departSpeed="55.56" fromTaz="taz_8" toTaz="taz_4" arrival="284.00">
        <route edges="31_25 25_19 19_13 13_12" exitTimes="17.00 126.00 275.00 284.00"/>
    </vehicle>

    <vehicle id="105.0" depart="10.00" departLane="free" departSpeed="55.56" fromTaz="taz_9" toTaz="taz_6" arrival="222.00">
        <route edges="32_26 26_25 25_19 19_18" exitTimes="19.00 112.00 213.00 222.00"/>
    </vehicle>

    <vehicle id="115.0" depart="10.00" departLane="free" departSpeed="55.56" fromTaz="taz_10" toTaz="taz_5" arrival="297.00">
        <route edges="33_27 27_21 21_22 22_16 16_17" exitTimes="19.00 117.00 194.00 288.00 297.00"/>
    </vehicle>

    <vehicle id="126.0" depart="10.00" departLane="free" departSpeed="55.55" fromTaz="taz_11" toTaz="taz_5" arrival="243.00">
        <route edges="34_28 28_22 22_16 16_17" exitTimes="19.00 140.00 234.00 243.00"/>
    </vehicle>

    <vehicle id="17.0" depart="10.00" departLane="free" departSpeed="55.57" fromTaz="taz_1" toTaz="taz_7" arrival="340.00">
        <route edges="2_8 8_9 9_15 15_16 16_22 22_23" exitTimes="18.00 40.00 108.00 224.00 332.00 340.00"/>
    </vehicle>

    <vehicle id="27.0" depart="10.00" departLane="free" departSpeed="55.57" fromTaz="taz_2" toTaz="taz_6" arrival="320.00">
        <route edges="3_9 9_8 8_14 14_20 20_19 19_18" exitTimes="19.00 41.00 142.00 221.00 311.00 320.00"/>
    </vehicle>

    <vehicle id="38.0" depart="10.00" departLane="free" departSpeed="55.57" fromTaz="taz_3" toTaz="taz_6" arrival="444.00">
        <route edges="4_10 10_9 9_8 8_14 14_20 20_19 19_18" exitTimes="19.00 126.00 171.00 272.00 340.00 435.00 444.00"/>
    </vehicle>

    <vehicle id="4.0" depart="10.00" departLane="free" departSpeed="55.57" fromTaz="taz_0" toTaz="taz_5" arrival="390.00">
        <route edges="1_7 7_8 8_9 9_15 15_16 16_17" exitTimes="19.00 143.00 168.00 236.00 381.00 390.00"/>
    </vehicle>

    <vehicle id="49.0" depart="10.00" departLane="free" departSpeed="55.56" fromTaz="taz_4" toTaz="taz_6" arrival="177.00">
        <route edges="12_13 13_19 19_18" exitTimes="19.00 168.00 177.00"/>
    </vehicle>

    <vehicle id="60.0" depart="10.00" departLane="free" departSpeed="55.57" fromTaz="taz_5" toTaz="taz_6" arrival="521.00">
        <route edges="17_16 16_15 15_14 14_20 20_19 19_18" exitTimes="19.00 129.00 347.00 424.00 512.00 521.00"/>
    </vehicle>

    <vehicle id="71.0" depart="10.00" departLane="free" departSpeed="55.55" fromTaz="taz_6" toTaz="taz_5" arrival="401.00">
        <route edges="18_19 19_20 20_14 14_15 15_16 16_17" exitTimes="19.00 105.00 173.00 244.00 392.00 401.00"/>
    </vehicle>

    <vehicle id="82.0" depart="10.00" departLane="free" departSpeed="55.55" fromTaz="taz_7" toTaz="taz_5" arrival="130.00">
        <route edges="23_22 22_16 16_17" exitTimes="19.00 122.00 130.00"/>
    </vehicle>

    <vehicle id="93.0" depart="10.00" departLane="free" departSpeed="55.56" fromTaz="taz_8" toTaz="taz_5" arrival="482.00">
        <route edges="31_25 25_19 19_20 20_14 14_15 15_16 16_17" exitTimes="19.00 128.00 213.00 281.00 353.00 473.00 482.00"/>
    </vehicle>

    <vehicle id="106.0" depart="12.00" departLane="free" departSpeed="55.56" fromTaz="taz_9" toTaz="taz_7" arrival="327.00">
        <route edges="32_26 26_27 27_21 21_22 22_23" exitTimes="21.00 144.00 242.00 319.00 327.00"/>
    </vehicle>

    <vehicle id="116.0" depart="12.00" departLane="free" departSpeed="55.56" fromTaz="taz_10" toTaz="taz_6" arrival="352.00">
        <route edges="33_27 27_26 26_25 25_19 19_18" exitTimes="21.00 140.00 238.00 343.00 352.00"/>
    </vehicle>

    <vehicle id="127.0" depart="12.00" departLane="free" departSpeed="55.55" fromTaz="taz_11" toTaz="taz_6" arrival="427.00">
        <route edges="34_28 28_27 27_26 26_25 25_19 19_18" exitTimes="21.00 102.00 220.00 315.00 418.00 427.00"/>
    </vehicle>

    <vehicle id="18.0" depart="12.00" departLane="free" departSpeed="55.57" fromTaz="taz_1" toTaz="taz_8" arrival="399.00">
        <route edges="2_8 8_14 14_20 20_19 19_25 25_31" exitTimes="20.00 121.00 189.00 291.00 390.00 399.00"/>
    </vehicle>

    <vehicle id="28.0" depart="12.00" departLane="free" departSpeed="55.57" fromTaz="taz_2" toTaz="taz_7" arrival="307.00">
        <route edges="3_9 9_10 10_16 16_22 22_23" exitTimes="21.00 128.00 202.00 299.00 307.00"/>
    </vehicle>

    <vehicle id="39.0" depart="12.00" departLane="free" departSpeed="55.57" fromTaz="taz_3" toTaz="taz_7" arrival="213.00">
        <route edges="4_10 10_16 16_22 22_23" exitTimes="21.00 95.00 204.00 213.00"/>
    </vehicle>

    <vehicle id="5.0" depart="12.00" departLane="free" departSpeed="55.57" fromTaz="taz_0" toTaz="taz_6" arrival="221.00">
        <route edges="1_7 7_13 13_19 19_18" exitTimes="21.00 63.00 212.00 221.00"/>
    </vehicle>

    <vehicle id="50.0" depart="12.00" departLane="free" departSpeed="55.56" fromTaz="taz_4" toTaz="taz_7" arrival="444.00">
        <route edges="12_13 13_14 14_15 15_16 16_22 22_23" exitTimes="21.00 127.00 199.00 311.00 435.00 444.00"/>
    </vehicle>

    <vehicle id="61.0" depart="12.00" departLane="free" departSpeed="55.57" fromTaz="taz_5" toTaz="taz_7" arrival="124.00">
        <route edges="17_16 16_22 22_23" exitTimes="21.00 115.00 124.00"/>
    </vehicle>

    <vehicle id="72.0" depart="12.00" departLane="free" departSpeed="55.55" fromTaz="taz_6" toTaz="taz_7" arrival="376.00">
        <route edges="18_19 19_20 20_21 21_22 22_23" exitTimes="21.00 107.00 281.00 367.00 376.00"/>
    </vehicle>

    <vehicle id="83.0" depart="12.00" departLane="free" departSpeed="55.55" fromTaz="taz_7" toTaz="taz_6" arrival="411.00">
        <route edges="23_22 22_21 21_20 20_19 19_18" exitTimes="21.00 98.00 312.00 402.00 411.00"/>
    </vehicle>

    <vehicle id="94.0" depart="12.00" departLane="free" departSpeed="55.56" fromTaz="taz_8" toTaz="taz_6" arrival="138.00">
        <route edges="31_25 25_19 19_18" exitTimes="21.00 129.00 138.00"/>
    </vehicle>

    <vehicle id="107.0" depart="14.00" departLane="free" departSpeed="55.56" fromTaz="taz_9" toTaz="taz_8" arrival="124.00">
        <route edges="32_26 26_25 25_31" exitTimes="23.00 116.00 124.00"/>
    </vehicle>

    <vehicle id="117.0" depart="14.00" departLane="free" departSpeed="55.56" fromTaz="taz_10" toTaz="taz_7" arrival="211.00">
        <route edges="33_27 27_21 21_22 22_23" exitTimes="23.00 121.00 203.00 211.00"/>
    </vehicle>

    <vehicle id="128.0" depart="14.00" departLane="free" departSpeed="55.55" fromTaz="taz_11" toTaz="taz_7" arrival="153.00">
        <route edges="34_28 28_22 22_23" exitTimes="23.00 144.00 153.00"/>
    </vehicle>

    <vehicle id="19.0" depart="14.00" departLane="free" departSpeed="55.57" fromTaz="taz_1" toTaz="taz_9" arrival="316.00">
        <route edges="2_8 8_14 14_20 20_26 26_32" exitTimes="22.00 123.00 191.00 308.00 316.00"/>
    </vehicle>

    <vehicle id="29.0" depart="14.00" departLane="free" departSpeed="55.57" fromTaz="taz_2" toTaz="taz_8" arrival="428.00">
        <route edges="3_9 9_8 8_14 14_20 20_19 19_25 25_31" exitTimes="23.00 46.00 147.00 224.00 321.00 420.00 428.00"/>
    </vehicle>

    <vehicle id="40.0" depart="14.00" departLane="free" departSpeed="55.57" fromTaz="taz_3" toTaz="taz_8" arrival="544.00">
        <route edges="4_10 10_9 9_8 8_14 14_20 20_19 19_25 25_31" exitTimes="23.00 130.00 173.00 274.00 342.00 437.00 535.00 544.00"/>
    </vehicle>

    <vehicle id="51.0" depart="14.00" departLane="free" departSpeed="55.56" fromTaz="taz_4" toTaz="taz_8" arrival="280.00">
        <route edges="12_13 13_19 19_25 25_31" exitTimes="23.00 172.00 271.00 280.00"/>
    </vehicle>

    <vehicle id="6.0" depart="14.00" departLane="free" departSpeed="55.57" fromTaz="taz_0" toTaz="taz_7" arrival="540.00">
        <route edges="1_7 7_8 8_9 9_15 15_16 16_22 22_23" exitTimes="23.00 144.00 170.00 238.00 382.00 532.00 540.00"/>
    </vehicle>

    <vehicle id="62.0" depart="14.00" departLane="free" departSpeed="55.57" fromTaz="taz_5" toTaz="taz_8" arrival="712.00">
        <route edges="17_16 16_15 15_14 14_20 20_19 19_25 25_31" exitTimes="23.00 133.00 442.00 511.00 605.00 703.00 712.00"/>
    </vehicle>

    <vehicle id="73.0" depart="14.00" departLane="free" departSpeed="55.55" fromTaz="taz_6" toTaz="taz_8" arrival="131.00">
        <route edges="18_19 19_25 25_31" exitTimes="23.00 122.00 131.00"/>
    </vehicle>

    <vehicle id="84.0" depart="14.00" departLane="free" departSpeed="55.55" fromTaz="taz_7" toTaz="taz_8" arrival="432.00">
        <route edges="23_22 22_21 21_27 27_26 26_25 25_31" exitTimes="23.00 100.00 201.00 319.00 423.00 432.00"/>
    </vehicle>

    <vehicle id="95.0" depart="14.00" departLane="free" departSpeed="55.56" fromTaz="taz_8" toTaz="taz_7" arrival="423.00">
        <route edges="31_25 25_26 26_27 27_21 21_22 22_23" exitTimes="23.00 120.00 239.00 337.00 415.00 423.00"/>
    </vehicle>

    <vehicle id="108.0" depart="16.00" departLane="free" departSpeed="55.56" fromTaz="taz_9" toTaz="taz_10" arrival="154.00">
        <route edges="32_26 26_27 27_33" exitTimes="25.00 145.00 154.00"/>
    </vehicle>

    <vehicle id="118.0" depart="16.00" departLane="free" departSpeed="55.56" fromTaz="taz_10" toTaz="taz_8" arrival="249.00">
        <route edges="33_27 27_26 26_25 25_31" exitTimes="25.00 143.00 240.00 249.00"/>
    </vehicle>

    <vehicle id="129.0" depart="16.00" departLane="free" departSpeed="55.55" fromTaz="taz_11" toTaz="taz_8" arrival="333.00">
        <route edges="34_28 28_27 27_26 26_25 25_31" exitTimes="25.00 107.00 229.00 324.00 333.00"/>
    </vehicle>

    <vehicle id="20.0" depart="16.00" departLane="free" departSpeed="55.57" fromTaz="taz_1" toTaz="taz_10" arrival="360.00">
        <route edges="2_8 8_9 9_15 15_21 21_27 27_33" exitTimes="24.00 46.00 114.00 254.00 352.00 360.00"/>
    </vehicle>

    <vehicle id="30.0" depart="16.00" departLane="free" departSpeed="55.57" fromTaz="taz_2" toTaz="taz_9" arrival="363.00">
        <route edges="3_9 9_8 8_14 14_20 20_26 26_32" exitTimes="25.00 48.00 149.00 226.00 354.00 363.00"/>
    </vehicle>

    <vehicle id="41.0" depart="16.00" departLane="free" departSpeed="55.57" fromTaz="taz_3" toTaz="taz_9" arrival="473.00">
        <route edges="4_10 10_9 9_8 8_14 14_20 20_26 26_32" exitTimes="25.00 132.00 174.00 275.00 348.00 465.00 473.00"/>
    </vehicle>

    <vehicle id="52.0" depart="16.00" departLane="free" departSpeed="55.56" fromTaz="taz_4" toTaz="taz_9" arrival="346.00">
        <route edges="12_13 13_14 14_20 20_26 26_32" exitTimes="25.00 131.00 214.00 337.00 346.00"/>
    </vehicle>

    <vehicle id="63.0" depart="16.00" departLane="free" departSpeed="55.57" fromTaz="taz_5" toTaz="taz_9" arrival="700.00">
        <route edges="17_16 16_15 15_14 14_20 20_26 26_32" exitTimes="25.00 135.00 496.00 572.00 691.00 700.00"/>
    </vehicle>

    <vehicle id="7.0" depart="16.00" departLane="free" departSpeed="55.57" fromTaz="taz_0" toTaz="taz_8" arrival="324.00">
        <route edges="1_7 7_13 13_19 19_25 25_31" exitTimes="25.00 67.00 216.00 315.00 324.00"/>
    </vehicle>

    <vehicle id="74.0" depart="16.00" departLane="free" departSpeed="55.55" fromTaz="taz_6" toTaz="taz_9" arrival="231.00">
        <route edges="18_19 19_25 25_26 26_32" exitTimes="25.00 130.00 222.00 231.00"/>
    </vehicle>

    <vehicle id="85.0" depart="16.00" departLane="free" departSpeed="55.55" fromTaz="taz_7" toTaz="taz_9" arrival="329.00">
        <route edges="23_22 22_21 21_27 27_26 26_32" exitTimes="25.00 102.00 203.00 321.00 329.00"/>
    </vehicle>

    <vehicle id="96.0" depart="16.00" departLane="free" departSpeed="55.56" fromTaz="taz_8" toTaz="taz_9" arrival="130.00">
        <route edges="31_25 25_26 26_32" exitTimes="25.00 121.00 130.00"/>
    </vehicle>

    <vehicle id="109.0" depart="18.00" departLane="free" departSpeed="55.56" fromTaz="taz_9" toTaz="taz_11" arrival="238.00">
        <route edges="32_26 26_27 27_28 28_34" exitTimes="27.00 149.00 229.00 238.00"/>
    </vehicle>

    <vehicle id="119.0" depart="18.00" departLane="free" departSpeed="55.56" fromTaz="taz_10" toTaz="taz_9" arrival="154.00">
        <route edges="33_27 27_26 26_32" exitTimes="27.00 145.00 154.00"/>
    </vehicle>

    <vehicle id="130.0" depart="18.00" departLane="free" departSpeed="55.55" fromTaz="taz_11" toTaz="taz_9" arrival="241.00">
        <route edges="34_28 28_27 27_26 26_32" exitTimes="27.00 111.00 232.00 241.00"/>
    </vehicle>

    <vehicle id="21.0" depart="18.00" departLane="free" departSpeed="55.57" fromTaz="taz_1" toTaz="taz_11" arrival="443.00">
        <route edges="2_8 8_9 9_15 15_21 21_27 27_28 28_34" exitTimes="26.00 48.00 116.00 256.00 354.00 434.00 443.00"/>
    </vehicle>

    <vehicle id="31.0" depart="18.00" departLane="free" departSpeed="55.57" fromTaz="taz_2" toTaz="taz_10" arrival="347.00">
        <route edges="3_9 9_15 15_21 21_27 27_33" exitTimes="27.00 95.00 234.00 339.00 347.00"/>
    </vehicle>

    <vehicle id="42.0" depart="18.00" departLane="free" departSpeed="55.57" fromTaz="taz_3" toTaz="taz_10" arrival="424.00">
        <route edges="4_10 10_16 16_22 22_21 21_27 27_33" exitTimes="27.00 101.00 205.00 311.00 415.00 424.00"/>
    </vehicle>

    <vehicle id="53.0" depart="18.00" departLane="free" departSpeed="55.56" fromTaz="taz_4" toTaz="taz_10" arrival="466.00">
        <route edges="12_13 13_14 14_20 20_26 26_27 27_33" exitTimes="27.00 133.00 216.00 339.00 457.00 466.00"/>
    </vehicle>

    <vehicle id="64.0" depart="18.00" departLane="free" departSpeed="55.57" fromTaz="taz_5" toTaz="taz_10" arrival="305.00">
        <route edges="17_16 16_22 22_21 21_27 27_33" exitTimes="27.00 121.00 198.00 296.00 305.00"/>
    </vehicle>

    <vehicle id="75.0" depart="18.00" departLane="free" departSpeed="55.55" fromTaz="taz_6" toTaz="taz_10" arrival="355.00">