<?xml version="1.0" encoding="UTF-8"?>

<!-- generated on 2022-02-21 11:40:58 by Eclipse SUMO sumo Version 1.10.0
<configuration xmlns:xsi="http://www.w3.org/2001/XMLSchema-instance" xsi:noNamespaceSchemaLocation="http://sumo.dlr.de/xsd/sumoConfiguration.xsd">

    <input>
        <net-file value="static/_8c5129e3-9f38-433e-951f-13a89adf774f/172/14/../../../../input_files/network/sumo-grid-network-od132.net.xml"/>
        <route-files value="static/_8c5129e3-9f38-433e-951f-13a89adf774f/172/14/trips_014.rou.xml"/>
        <additional-files value="static/_8c5129e3-9f38-433e-951f-13a89adf774f/172/14/dua_dump_014.add.xml"/>
    </input>

    <output>
        <vehroute-output value="static/_8c5129e3-9f38-433e-951f-13a89adf774f/172/14/vehRoutes.veh.xml"/>
        <vehroute-output.exit-times value="true"/>
        <vehroute-output.last-route value="true"/>
        <vehroute-output.sorted value="true"/>
        <vehroute-output.write-unfinished value="true"/>
    </output>

    <time>
        <begin value="0.0"/>
        <end value="4500.0"/>
    </time>

    <processing>
        <route-steps value="200"/>
        <no-internal-links value="false"/>
        <time-to-teleport value="4500.0"/>
        <time-to-teleport.highways value="0"/>
        <max-depart-delay value="4500"/>
        <eager-insert value="false"/>
        <default.speeddev value="0"/>
        <pedestrian.model value="nonInteracting"/>
    </processing>

    <report>
        <verbose value="true"/>
        <xml-validation value="never"/>
        <xml-validation.routes value="never"/>
        <no-warnings value="false"/>
        <log value="static/_8c5129e3-9f38-433e-951f-13a89adf774f/172/14/iteration_014.sumo.log"/>
        <no-step-log value="true"/>
    </report>

    <mesoscopic>
        <mesosim value="true"/>
        <meso-junction-control value="true"/>
        <meso-recheck value="0"/>
    </mesoscopic>

    <random_number>
        <random value="false"/>
    </random_number>

</configuration>
-->

<routes xmlns:xsi="http://www.w3.org/2001/XMLSchema-instance" xsi:noNamespaceSchemaLocation="http://sumo.dlr.de/xsd/routes_file.xsd">
    <vehicle id="0.0" depart="0.00" departLane="free" departSpeed="55.57" fromTaz="taz_0" toTaz="taz_1" arrival="142.00">
        <route edges="1_7 7_8 8_2" exitTimes="9.00 134.00 142.00"/>
    </vehicle>

    <vehicle id="100.0" depart="0.00" departLane="free" departSpeed="55.56" fromTaz="taz_9" toTaz="taz_1" arrival="703.00">
        <route edges="32_26 26_20 20_14 14_8 8_2" exitTimes="9.00 126.00 194.00 696.00 703.00"/>
    </vehicle>

    <vehicle id="11.0" depart="0.00" departLane="free" departSpeed="55.57" fromTaz="taz_1" toTaz="taz_0" arrival="137.00">
        <route edges="2_8 8_7 7_1" exitTimes="8.00 128.00 137.00"/>
    </vehicle>

    <vehicle id="110.0" depart="0.00" departLane="free" departSpeed="55.56" fromTaz="taz_10" toTaz="taz_0" arrival="674.00">
        <route edges="33_27 27_21 21_15 15_9 9_8 8_7 7_1" exitTimes="9.00 107.00 247.00 344.00 545.00 665.00 674.00"/>
    </vehicle>

    <vehicle id="121.0" depart="0.00" departLane="free" departSpeed="55.55" fromTaz="taz_11" toTaz="taz_0" arrival="1112.00">
        <route edges="34_28 28_27 27_21 21_15 15_9 9_8 8_7 7_1" exitTimes="9.00 93.00 191.00 331.00 921.00 979.00 1103.00 1112.00"/>
    </vehicle>

    <vehicle id="22.0" depart="0.00" departLane="free" departSpeed="55.57" fromTaz="taz_2" toTaz="taz_0" arrival="160.00">
        <route edges="3_9 9_8 8_7 7_1" exitTimes="9.00 31.00 151.00 160.00"/>
    </vehicle>

    <vehicle id="33.0" depart="0.00" departLane="free" departSpeed="55.57" fromTaz="taz_3" toTaz="taz_0" arrival="292.00">
        <route edges="4_10 10_9 9_8 8_7 7_1" exitTimes="9.00 119.00 162.00 283.00 292.00"/>
    </vehicle>

    <vehicle id="44.0" depart="0.00" departLane="free" departSpeed="55.56" fromTaz="taz_4" toTaz="taz_0" arrival="60.00">
        <route edges="12_13 13_7 7_1" exitTimes="9.00 51.00 60.00"/>
    </vehicle>

    <vehicle id="55.0" depart="0.00" departLane="free" departSpeed="55.57" fromTaz="taz_5" toTaz="taz_0" arrival="395.00">
        <route edges="17_16 16_10 10_9 9_8 8_7 7_1" exitTimes="9.00 83.00 191.00 267.00 387.00 395.00"/>
    </vehicle>

    <vehicle id="66.0" depart="0.00" departLane="free" departSpeed="55.55" fromTaz="taz_6" toTaz="taz_0" arrival="209.00">
        <route edges="18_19 19_13 13_7 7_1" exitTimes="9.00 158.00 200.00 209.00"/>
    </vehicle>

    <vehicle id="77.0" depart="0.00" departLane="free" departSpeed="55.55" fromTaz="taz_7" toTaz="taz_0" arrival="579.00">
        <route edges="23_22 22_16 16_15 15_9 9_8 8_7 7_1" exitTimes="9.00 106.00 216.00 293.00 447.00 570.00 579.00"/>
    </vehicle>

    <vehicle id="88.0" depart="0.00" departLane="free" departSpeed="55.56" fromTaz="taz_8" toTaz="taz_0" arrival="311.00">
        <route edges="31_25 25_19 19_13 13_7 7_1" exitTimes="9.00 108.00 260.00 302.00 311.00"/>
    </vehicle>

    <vehicle id="1.0" depart="2.00" departLane="free" departSpeed="55.57" fromTaz="taz_0" toTaz="taz_2" arrival="169.00">
        <route edges="1_7 7_8 8_9 9_3" exitTimes="11.00 139.00 161.00 169.00"/>
    </vehicle>

    <vehicle id="101.0" depart="2.00" departLane="free" departSpeed="55.56" fromTaz="taz_9" toTaz="taz_2" arrival="1023.00">
        <route edges="32_26 26_20 20_14 14_8 8_9 9_3" exitTimes="11.00 135.00 203.00 991.00 1014.00 1023.00"/>
    </vehicle>

    <vehicle id="111.0" depart="2.00" departLane="free" departSpeed="55.56" fromTaz="taz_10" toTaz="taz_1" arrival="614.00">
        <route edges="33_27 27_21 21_15 15_9 9_8 8_2" exitTimes="11.00 109.00 249.00 432.00 606.00 614.00"/>
    </vehicle>

    <vehicle id="12.0" depart="2.00" departLane="free" departSpeed="55.57" fromTaz="taz_1" toTaz="taz_2" arrival="41.00">
        <route edges="2_8 8_9 9_3" exitTimes="10.00 32.00 41.00"/>
    </vehicle>

    <vehicle id="122.0" depart="2.00" departLane="free" departSpeed="55.55" fromTaz="taz_11" toTaz="taz_1" arrival="1330.00">
        <route edges="34_28 28_27 27_21 21_15 15_9 9_8 8_2" exitTimes="11.00 95.00 193.00 333.00 950.00 1322.00 1330.00"/>
    </vehicle>

    <vehicle id="23.0" depart="2.00" departLane="free" departSpeed="55.57" fromTaz="taz_2" toTaz="taz_1" arrival="41.00">
        <route edges="3_9 9_8 8_2" exitTimes="11.00 33.00 41.00"/>
    </vehicle>

    <vehicle id="34.0" depart="2.00" departLane="free" departSpeed="55.57" fromTaz="taz_3" toTaz="taz_1" arrival="172.00">
        <route edges="4_10 10_9 9_8 8_2" exitTimes="11.00 120.00 164.00 172.00"/>
    </vehicle>

    <vehicle id="45.0" depart="2.00" departLane="free" departSpeed="55.56" fromTaz="taz_4" toTaz="taz_1" arrival="190.00">
        <route edges="12_13 13_7 7_8 8_2" exitTimes="11.00 62.00 182.00 190.00"/>
    </vehicle>

    <vehicle id="56.0" depart="2.00" departLane="free" departSpeed="55.57" fromTaz="taz_5" toTaz="taz_1" arrival="277.00">
        <route edges="17_16 16_10 10_9 9_8 8_2" exitTimes="11.00 85.00 192.00 269.00 277.00"/>
    </vehicle>

    <vehicle id="67.0" depart="2.00" departLane="free" departSpeed="55.55" fromTaz="taz_6" toTaz="taz_1" arrival="574.00">
        <route edges="18_19 19_20 20_14 14_8 8_2" exitTimes="11.00 97.00 165.00 566.00 574.00"/>
    </vehicle>

    <vehicle id="78.0" depart="2.00" departLane="free" departSpeed="55.55" fromTaz="taz_7" toTaz="taz_1" arrival="518.00">
        <route edges="23_22 22_16 16_15 15_9 9_8 8_2" exitTimes="11.00 111.00 221.00 328.00 511.00 518.00"/>
    </vehicle>

    <vehicle id="89.0" depart="2.00" departLane="free" departSpeed="55.56" fromTaz="taz_8" toTaz="taz_1" arrival="1008.00">
        <route edges="31_25 25_19 19_20 20_14 14_8 8_2" exitTimes="11.00 110.00 195.00 263.00 1000.00 1008.00"/>
    </vehicle>

    <vehicle id="10.0" depart="4.00" departLane="free" departSpeed="55.57" fromTaz="taz_0" toTaz="taz_11" arrival="571.00">
        <route edges="1_7 7_8 8_9 9_15 15_21 21_27 27_28 28_34" exitTimes="13.00 148.00 170.00 237.00 377.00 481.00 562.00 571.00"/>
    </vehicle>

    <vehicle id="102.0" depart="4.00" departLane="free" departSpeed="55.56" fromTaz="taz_9" toTaz="taz_3" arrival="1142.00">
        <route edges="32_26 26_20 20_14 14_8 8_9 9_10 10_4" exitTimes="13.00 137.00 205.00 993.00 1027.00 1134.00 1142.00"/>
    </vehicle>

    <vehicle id="112.0" depart="4.00" departLane="free" departSpeed="55.56" fromTaz="taz_10" toTaz="taz_2" arrival="459.00">
        <route edges="33_27 27_21 21_15 15_9 9_3" exitTimes="13.00 111.00 251.00 450.00 459.00"/>
    </vehicle>

    <vehicle id="123.0" depart="4.00" departLane="free" departSpeed="55.55" fromTaz="taz_11" toTaz="taz_2" arrival="969.00">
        <route edges="34_28 28_27 27_21 21_15 15_9 9_3" exitTimes="13.00 96.00 194.00 334.00 960.00 969.00"/>
    </vehicle>

    <vehicle id="13.0" depart="4.00" departLane="free" departSpeed="55.57" fromTaz="taz_1" toTaz="taz_3" arrival="150.00">
        <route edges="2_8 8_9 9_10 10_4" exitTimes="12.00 34.00 141.00 150.00"/>
    </vehicle>

    <vehicle id="24.0" depart="4.00" departLane="free" departSpeed="55.57" fromTaz="taz_2" toTaz="taz_3" arrival="128.00">
        <route edges="3_9 9_10 10_4" exitTimes="13.00 120.00 128.00"/>
    </vehicle>

    <vehicle id="35.0" depart="4.00" departLane="free" departSpeed="55.57" fromTaz="taz_3" toTaz="taz_2" arrival="131.00">
        <route edges="4_10 10_9 9_3" exitTimes="13.00 122.00 131.00"/>
    </vehicle>

    <vehicle id="46.0" depart="4.00" departLane="free" departSpeed="55.56" fromTaz="taz_4" toTaz="taz_2" arrival="214.00">
        <route edges="12_13 13_7 7_8 8_9 9_3" exitTimes="13.00 64.00 183.00 205.00 214.00"/>
    </vehicle>

    <vehicle id="57.0" depart="4.00" departLane="free" departSpeed="55.57" fromTaz="taz_5" toTaz="taz_2" arrival="199.00">
        <route edges="17_16 16_15 15_9 9_3" exitTimes="13.00 123.00 191.00 199.00"/>
    </vehicle>

    <vehicle id="68.0" depart="4.00" departLane="free" departSpeed="55.55" fromTaz="taz_6" toTaz="taz_2" arrival="599.00">
        <route edges="18_19 19_20 20_14 14_8 8_9 9_3" exitTimes="13.00 99.00 167.00 568.00 590.00 599.00"/>
    </vehicle>

    <vehicle id="79.0" depart="4.00" departLane="free" departSpeed="55.55" fromTaz="taz_7" toTaz="taz_2" arrival="338.00">
        <route edges="23_22 22_16 16_15 15_9 9_3" exitTimes="13.00 113.00 223.00 330.00 338.00"/>
    </vehicle>

    <vehicle id="90.0" depart="4.00" departLane="free" departSpeed="55.56" fromTaz="taz_8" toTaz="taz_2" arrival="1039.00">
        <route edges="31_25 25_19 19_20 20_14 14_8 8_9 9_3" exitTimes="13.00 112.00 197.00 265.00 1002.00 1030.00 1039.00"/>
    </vehicle>

    <vehicle id="103.0" depart="6.00" departLane="free" departSpeed="55.56" fromTaz="taz_9" toTaz="taz_4" arrival="326.00">
        <route edges="32_26 26_20 20_14 14_13 13_12" exitTimes="15.00 139.00 212.00 317.00 326.00"/>
    </vehicle>

    <vehicle id="113.0" depart="6.00" departLane="free" departSpeed="55.56" fromTaz="taz_10" toTaz="taz_3" arrival="372.00">
        <route edges="33_27 27_21 21_22 22_16 16_10 10_4" exitTimes="15.00 113.00 193.00 287.00 363.00 372.00"/>
    </vehicle>

    <vehicle id="124.0" depart="6.00" departLane="free" departSpeed="55.55" fromTaz="taz_11" toTaz="taz_3" arrival="312.00">
        <route edges="34_28 28_22 22_16 16_10 10_4" exitTimes="15.00 136.00 230.00 304.00 312.00"/>
    </vehicle>

    <vehicle id="14.0" depart="6.00" departLane="free" departSpeed="55.57" fromTaz="taz_1" toTaz="taz_4" arrival="185.00">
        <route edges="2_8 8_7 7_13 13_12" exitTimes="14.00 134.00 176.00 185.00"/>
    </vehicle>

    <vehicle id="2.0" depart="6.00" departLane="free" departSpeed="55.57" fromTaz="taz_0" toTaz="taz_3" arrival="300.00">
        <route edges="1_7 7_8 8_9 9_10 10_4" exitTimes="15.00 150.00 185.00 292.00 300.00"/>
    </vehicle>

    <vehicle id="25.0" depart="6.00" departLane="free" departSpeed="55.57" fromTaz="taz_2" toTaz="taz_4" arrival="207.00">
        <route edges="3_9 9_8 8_7 7_13 13_12" exitTimes="15.00 37.00 157.00 199.00 207.00"/>
    </vehicle>

    <vehicle id="36.0" depart="6.00" departLane="free" departSpeed="55.57" fromTaz="taz_3" toTaz="taz_4" arrival="337.00">
        <route edges="4_10 10_9 9_8 8_7 7_13 13_12" exitTimes="15.00 124.00 166.00 286.00 328.00 337.00"/>
    </vehicle>

    <vehicle id="47.0" depart="6.00" departLane="free" departSpeed="55.56" fromTaz="taz_4" toTaz="taz_3" arrival="323.00">
        <route edges="12_13 13_7 7_8 8_9 9_10 10_4" exitTimes="15.00 65.00 185.00 207.00 314.00 323.00"/>
    </vehicle>

    <vehicle id="58.0" depart="6.00" departLane="free" departSpeed="55.57" fromTaz="taz_5" toTaz="taz_3" arrival="98.00">
        <route edges="17_16 16_10 10_4" exitTimes="15.00 89.00 98.00"/>
    </vehicle>

    <vehicle id="69.0" depart="6.00" departLane="free" departSpeed="55.55" fromTaz="taz_6" toTaz="taz_3" arrival="710.00">
        <route edges="18_19 19_20 20_14 14_8 8_9 9_10 10_4" exitTimes="15.00 101.00 169.00 573.00 595.00 702.00 710.00"/>
    </vehicle>

    <vehicle id="80.0" depart="6.00" departLane="free" departSpeed="55.55" fromTaz="taz_7" toTaz="taz_3" arrival="200.00">
        <route edges="23_22 22_16 16_10 10_4" exitTimes="15.00 117.00 191.00 200.00"/>
    </vehicle>

    <vehicle id="91.0" depart="6.00" departLane="free" departSpeed="55.56" fromTaz="taz_8" toTaz="taz_3" arrival="1147.00">
        <route edges="31_25 25_19 19_20 20_14 14_8 8_9 9_10 10_4" exitTimes="15.00 114.00 199.00 267.00 1004.00 1032.00 1139.00 1147.00"/>
    </vehicle>

    <vehicle id="104.0" depart="8.00" departLane="free" departSpeed="55.56" fromTaz="taz_9" toTaz="taz_5" arrival="441.00">
        <route edges="32_26 26_20 20_14 14_15 15_16 16_17" exitTimes="17.00 140.00 213.00 319.00 432.00 441.00"/>
    </vehicle>

    <vehicle id="114.0" depart="8.00" departLane="free" departSpeed="55.56" fromTaz="taz_10" toTaz="taz_4" arrival="435.00">
        <route edges="33_27 27_26 26_20 20_14 14_13 13_12" exitTimes="17.00 135.00 252.00 320.00 426.00 435.00"/>
    </vehicle>

    <vehicle id="125.0" depart="8.00" departLane="free" departSpeed="55.55" fromTaz="taz_11" toTaz="taz_4" arrival="519.00">
        <route edges="34_28 28_27 27_26 26_20 20_14 14_13 13_12" exitTimes="17.00 101.00 221.00 337.00 405.00 510.00 519.00"/>
    </vehicle>

    <vehicle id="15.0" depart="8.00" departLane="free" departSpeed="55.57" fromTaz="taz_1" toTaz="taz_5" arrival="232.00">
        <route edges="2_8 8_9 9_15 15_16 16_17" exitTimes="16.00 38.00 106.00 223.00 232.00"/>
    </vehicle>

    <vehicle id="26.0" depart="8.00" departLane="free" departSpeed="55.57" fromTaz="taz_2" toTaz="taz_5" arrival="206.00">
        <route edges="3_9 9_10 10_16 16_17" exitTimes="17.00 124.00 198.00 206.00"/>
    </vehicle>

    <vehicle id="3.0" depart="8.00" departLane="free" departSpeed="55.57" fromTaz="taz_0" toTaz="taz_4" arrival="68.00">
        <route edges="1_7 7_13 13_12" exitTimes="17.00 59.00 68.00"/>
    </vehicle>

    <vehicle id="37.0" depart="8.00" departLane="free" departSpeed="55.57" fromTaz="taz_3" toTaz="taz_5" arrival="100.00">
        <route edges="4_10 10_16 16_17" exitTimes="17.00 91.00 100.00"/>
    </vehicle>

    <vehicle id="48.0" depart="8.00" departLane="free" departSpeed="55.56" fromTaz="taz_4" toTaz="taz_5" arrival="328.00">
        <route edges="12_13 13_14 14_15 15_16 16_17" exitTimes="17.00 126.00 209.00 320.00 328.00"/>
    </vehicle>

    <vehicle id="59.0" depart="8.00" departLane="free" departSpeed="55.57" fromTaz="taz_5" toTaz="taz_4" arrival="338.00">
        <route edges="17_16 16_15 15_14 14_13 13_12" exitTimes="17.00 127.00 219.00 329.00 338.00"/>
    </vehicle>

    <vehicle id="70.0" depart="8.00" departLane="free" departSpeed="55.55" fromTaz="taz_6" toTaz="taz_4" arrival="175.00">
        <route edges="18_19 19_13 13_12" exitTimes="17.00 166.00 175.00"/>
    </vehicle>

    <vehicle id="81.0" depart="8.00" departLane="free" departSpeed="55.55" fromTaz="taz_7" toTaz="taz_4" arrival="1646.00">
        <route edges="23_22 22_16 16_15 15_14 14_13 13_12" exitTimes="17.00 119.00 240.00 1515.00 1637.00 1646.00"/>
    </vehicle>

    <vehicle id="92.0" depart="8.00" departLane="free" departSpeed="55.56" fromTaz="taz_8" toTaz="taz_4" arrival="274.00">
        <route edges="31_25 25_19 19_13 13_12" exitTimes="17.00 116.00 265.00 274.00"/>
    </vehicle>

    <vehicle id="105.0" depart="10.00" departLane="free" departSpeed="55.56" fromTaz="taz_9" toTaz="taz_6" arrival="222.00">
        <route edges="32_26 26_25 25_19 19_18" exitTimes="19.00 112.00 213.00 222.00"/>
    </vehicle>

    <vehicle id="115.0" depart="10.00" departLane="free" departSpeed="55.56" fromTaz="taz_10" toTaz="taz_5" arrival="306.00">
        <route edges="33_27 27_21 21_22 22_16 16_17" exitTimes="19.00 117.00 202.00 298.00 306.00"/>
    </vehicle>

    <vehicle id="126.0" depart="10.00" departLane="free" departSpeed="55.55" fromTaz="taz_11" toTaz="taz_5" arrival="244.00">
        <route edges="34_28 28_22 22_16 16_17" exitTimes="19.00 142.00 236.00 244.00"/>
    </vehicle>

    <vehicle id="16.0" depart="10.00" departLane="free" departSpeed="55.57" fromTaz="taz_1" toTaz="taz_6" arrival="284.00">
        <route edges="2_8 8_14 14_20 20_19 19_18" exitTimes="18.00 119.00 187.00 275.00 284.00"/>
    </vehicle>

    <vehicle id="27.0" depart="10.00" departLane="free" departSpeed="55.57" fromTaz="taz_2" toTaz="taz_6" arrival="326.00">
        <route edges="3_9 9_8 8_14 14_20 20_19 19_18" exitTimes="19.00 47.00 148.00 230.00 317.00 326.00"/>
    </vehicle>

    <vehicle id="38.0" depart="10.00" departLane="free" departSpeed="55.57" fromTaz="taz_3" toTaz="taz_6" arrival="447.00">
        <route edges="4_10 10_9 9_8 8_14 14_20 20_19 19_18" exitTimes="19.00 126.00 181.00 282.00 350.00 438.00 447.00"/>
    </vehicle>

    <vehicle id="4.0" depart="10.00" departLane="free" departSpeed="55.57" fromTaz="taz_0" toTaz="taz_5" arrival="376.00">
        <route edges="1_7 7_8 8_9 9_15 15_16 16_17" exitTimes="19.00 151.00 186.00 254.00 368.00 376.00"/>
    </vehicle>

    <vehicle id="49.0" depart="10.00" departLane="free" departSpeed="55.56" fromTaz="taz_4" toTaz="taz_6" arrival="177.00">
        <route edges="12_13 13_19 19_18" exitTimes="19.00 168.00 177.00"/>
    </vehicle>

    <vehicle id="60.0" depart="10.00" departLane="free" departSpeed="55.57" fromTaz="taz_5" toTaz="taz_6" arrival="492.00">
        <route edges="17_16 16_15 15_14 14_20 20_19 19_18" exitTimes="19.00 146.00 313.00 382.00 483.00 492.00"/>
    </vehicle>

    <vehicle id="71.0" depart="10.00" departLane="free" departSpeed="55.55" fromTaz="taz_6" toTaz="taz_5" arrival="363.00">
        <route edges="18_19 19_20 20_14 14_15 15_16 16_17" exitTimes="19.00 105.00 173.00 244.00 355.00 363.00"/>
    </vehicle>

    <vehicle id="82.0" depart="10.00" departLane="free" departSpeed="55.55" fromTaz="taz_7" toTaz="taz_5" arrival="129.00">
        <route edges="23_22 22_16 16_17" exitTimes="19.00 121.00 129.00"/>
    </vehicle>

    <vehicle id="93.0" depart="10.00" departLane="free" departSpeed="55.56" fromTaz="taz_8" toTaz="taz_5" arrival="480.00">
        <route edges="31_25 25_19 19_20 20_14 14_15 15_16 16_17" exitTimes="19.00 118.00 203.00 271.00 343.00 472.00 480.00"/>
    </vehicle>

    <vehicle id="106.0" depart="12.00" departLane="free" departSpeed="55.56" fromTaz="taz_9" toTaz="taz_7" arrival="323.00">
        <route edges="32_26 26_27 27_21 21_22 22_23" exitTimes="21.00 139.00 237.00 314.00 323.00"/>
    </vehicle>

    <vehicle id="116.0" depart="12.00" departLane="free" departSpeed="55.56" fromTaz="taz_10" toTaz="taz_6" arrival="352.00">
        <route edges="33_27 27_26 26_25 25_19 19_18" exitTimes="21.00 140.00 236.00 343.00 352.00"/>
    </vehicle>

    <vehicle id="127.0" depart="12.00" departLane="free" departSpeed="55.55" fromTaz="taz_11" toTaz="taz_6" arrival="422.00">
        <route edges="34_28 28_27 27_26 26_25 25_19 19_18" exitTimes="21.00 103.00 222.00 315.00 413.00 422.00"/>
    </vehicle>

    <vehicle id="17.0" depart="12.00" departLane="free" departSpeed="55.57" fromTaz="taz_1" toTaz="taz_7" arrival="327.00">
        <route edges="2_8 8_9 9_15 15_16 16_22 22_23" exitTimes="20.00 42.00 110.00 225.00 318.00 327.00"/>
    </vehicle>

    <vehicle id="28.0" depart="12.00" departLane="free" departSpeed="55.57" fromTaz="taz_2" toTaz="taz_7" arrival="304.00">
        <route edges="3_9 9_10 10_16 16_22 22_23" exitTimes="21.00 128.00 202.00 295.00 304.00"/>
    </vehicle>

    <vehicle id="39.0" depart="12.00" departLane="free" departSpeed="55.57" fromTaz="taz_3" toTaz="taz_7" arrival="210.00">
        <route edges="4_10 10_16 16_22 22_23" exitTimes="21.00 95.00 201.00 210.00"/>
    </vehicle>

    <vehicle id="5.0" depart="12.00" departLane="free" departSpeed="55.57" fromTaz="taz_0" toTaz="taz_6" arrival="221.00">
        <route edges="1_7 7_13 13_19 19_18" exitTimes="21.00 63.00 212.00 221.00"/>
    </vehicle>

    <vehicle id="50.0" depart="12.00" departLane="free" departSpeed="55.56" fromTaz="taz_4" toTaz="taz_7" arrival="429.00">
        <route edges="12_13 13_14 14_15 15_16 16_22 22_23" exitTimes="21.00 127.00 211.00 325.00 420.00 429.00"/>
    </vehicle>

    <vehicle id="61.0" depart="12.00" departLane="free" departSpeed="55.57" fromTaz="taz_5" toTaz="taz_7" arrival="124.00">
        <route edges="17_16 16_22 22_23" exitTimes="21.00 115.00 124.00"/>
    </vehicle>

    <vehicle id="72.0" depart="12.00" departLane="free" departSpeed="55.55" fromTaz="taz_6" toTaz="taz_7" arrival="383.00">
        <route edges="18_19 19_20 20_21 21_22 22_23" exitTimes="21.00 107.00 294.00 374.00 383.00"/>
    </vehicle>

    <vehicle id="83.0" depart="12.00" departLane="free" departSpeed="55.55" fromTaz="taz_7" toTaz="taz_6" arrival="371.00">
        <route edges="23_22 22_21 21_20 20_19 19_18" exitTimes="21.00 98.00 257.00 363.00 371.00"/>
    </vehicle>

    <vehicle id="94.0" depart="12.00" departLane="free" departSpeed="55.56" fromTaz="taz_8" toTaz="taz_6" arrival="129.00">
        <route edges="31_25 25_19 19_18" exitTimes="21.00 120.00 129.00"/>
    </vehicle>

    <vehicle id="107.0" depart="14.00" departLane="free" departSpeed="55.56" fromTaz="taz_9" toTaz="taz_8" arrival="124.00">
        <route edges="32_26 26_25 25_31" exitTimes="23.00 116.00 124.00"/>
    </vehicle>

    <vehicle id="117.0" depart="14.00" departLane="free" departSpeed="55.56" fromTaz="taz_10" toTaz="taz_7" arrival="213.00">
        <route edges="33_27 27_21 21_22 22_23" exitTimes="23.00 121.00 204.00 213.00"/>
    </vehicle>

    <vehicle id="128.0" depart="14.00" departLane="free" departSpeed="55.55" fromTaz="taz_11" toTaz="taz_7" arrival="153.00">
        <route edges="34_28 28_22 22_23" exitTimes="23.00 144.00 153.00"/>
    </vehicle>

    <vehicle id="18.0" depart="14.00" departLane="free" departSpeed="55.57" fromTaz="taz_1" toTaz="taz_8" arrival="385.00">
        <route edges="2_8 8_14 14_20 20_19 19_25 25_31" exitTimes="22.00 123.00 191.00 277.00 376.00 385.00"/>
    </vehicle>

    <vehicle id="29.0" depart="14.00" departLane="free" departSpeed="55.57" fromTaz="taz_2" toTaz="taz_8" arrival="426.00">
        <route edges="3_9 9_8 8_14 14_20 20_19 19_25 25_31" exitTimes="23.00 49.00 150.00 231.00 318.00 417.00 426.00"/>
    </vehicle>

    <vehicle id="41.0" depart="14.00" departLane="free" departSpeed="55.57" fromTaz="taz_3" toTaz="taz_9" arrival="506.00">
        <route edges="4_10 10_9 9_8 8_14 14_20 20_26 26_32" exitTimes="23.00 130.00 190.00 291.00 366.00 497.00 506.00"/>
    </vehicle>

    <vehicle id="51.0" depart="14.00" departLane="free" departSpeed="55.56" fromTaz="taz_4" toTaz="taz_8" arrival="280.00">
        <route edges="12_13 13_19 19_25 25_31" exitTimes="23.00 172.00 271.00 280.00"/>
    </vehicle>

    <vehicle id="6.0" depart="14.00" departLane="free" departSpeed="55.57" fromTaz="taz_0" toTaz="taz_7" arrival="473.00">
        <route edges="1_7 7_8 8_9 9_15 15_16 16_22 22_23" exitTimes="23.00 153.00 188.00 256.00 369.00 464.00 473.00"/>
    </vehicle>

    <vehicle id="62.0" depart="14.00" departLane="free" departSpeed="55.57" fromTaz="taz_5" toTaz="taz_8" arrival="727.00">
        <route edges="17_16 16_15 15_14 14_20 20_19 19_25 25_31" exitTimes="23.00 148.00 463.00 531.00 619.00 718.00 727.00"/>
    </vehicle>

    <vehicle id="73.0" depart="14.00" departLane="free" departSpeed="55.55" fromTaz="taz_6" toTaz="taz_8" arrival="131.00">
        <route edges="18_19 19_25 25_31" exitTimes="23.00 122.00 131.00"/>
    </vehicle>

    <vehicle id="84.0" depart="14.00" departLane="free" departSpeed="55.55" fromTaz="taz_7" toTaz="taz_8" arrival="418.00">
        <route edges="23_22 22_21 21_27 27_26 26_25 25_31" exitTimes="23.00 100.00 198.00 316.00 409.00 418.00"/>
    </vehicle>

    <vehicle id="95.0" depart="14.00" departLane="free" departSpeed="55.56" fromTaz="taz_8" toTaz="taz_7" arrival="421.00">
        <route edges="31_25 25_26 26_27 27_21 21_22 22_23" exitTimes="23.00 116.00 237.00 335.00 412.00 421.00"/>
    </vehicle>

    <vehicle id="108.0" depart="16.00" departLane="free" departSpeed="55.56" fromTaz="taz_9" toTaz="taz_10" arrival="152.00">
        <route edges="32_26 26_27 27_33" exitTimes="25.00 143.00 152.00"/>
    </vehicle>

    <vehicle id="118.0" depart="16.00" departLane="free" departSpeed="55.56" fromTaz="taz_10" toTaz="taz_8" arrival="247.00">
        <route edges="33_27 27_26 26_25 25_31" exitTimes="25.00 143.00 238.00 247.00"/>
    </vehicle>

    <vehicle id="129.0" depart="16.00" departLane="free" departSpeed="55.55" fromTaz="taz_11" toTaz="taz_8" arrival="328.00">
        <route edges="34_28 28_27 27_26 26_25 25_31" exitTimes="25.00 106.00 224.00 319.00 328.00"/>
    </vehicle>

    <vehicle id="19.0" depart="16.00" departLane="free" departSpeed="55.57" fromTaz="taz_1" toTaz="taz_9" arrival="343.00">
        <route edges="2_8 8_14 14_20 20_26 26_32" exitTimes="24.00 125.00 212.00 334.00 343.00"/>
    </vehicle>

    <vehicle id="30.0" depart="16.00" departLane="free" departSpeed="55.57" fromTaz="taz_2" toTaz="taz_9" arrival="358.00">
        <route edges="3_9 9_8 8_14 14_20 20_26 26_32" exitTimes="25.00 50.00 151.00 233.00 349.00 358.00"/>
    </vehicle>

    <vehicle id="42.0" depart="16.00" departLane="free" departSpeed="55.57" fromTaz="taz_3" toTaz="taz_10" arrival="395.00">
        <route edges="4_10 10_16 16_22 22_21 21_27 27_33" exitTimes="25.00 99.00 203.00 288.00 387.00 395.00"/>
    </vehicle>

    <vehicle id="52.0" depart="16.00" departLane="free" departSpeed="55.56" fromTaz="taz_4" toTaz="taz_9" arrival="344.00">
        <route edges="12_13 13_14 14_20 20_26 26_32" exitTimes="25.00 131.00 215.00 336.00 344.00"/>
    </vehicle>

    <vehicle id="63.0" depart="16.00" departLane="free" departSpeed="55.57" fromTaz="taz_5" toTaz="taz_9" arrival="747.00">
        <route edges="17_16 16_15 15_14 14_20 20_26 26_32" exitTimes="25.00 150.00 549.00 622.00 738.00 747.00"/>
    </vehicle>

    <vehicle id="74.0" depart="16.00" departLane="free" departSpeed="55.55" fromTaz="taz_6" toTaz="taz_9" arrival="225.00">
        <route edges="18_19 19_25 25_26 26_32" exitTimes="25.00 124.00 216.00 225.00"/>
    </vehicle>

    <vehicle id="8.0" depart="16.00" departLane="free" departSpeed="55.57" fromTaz="taz_0" toTaz="taz_9" arrival="382.00">
        <route edges="1_7 7_13 13_14 14_20 20_26 26_32" exitTimes="25.00 68.00 189.00 257.00 373.00 382.00"/>
    </vehicle>

    <vehicle id="85.0" depart="16.00" departLane="free" departSpeed="55.55" fromTaz="taz_7" toTaz="taz_9" arrival="327.00">
        <route edges="23_22 22_21 21_27 27_26 26_32" exitTimes="25.00 102.00 200.00 318.00 327.00"/>
    </vehicle>

    <vehicle id="96.0" depart="16.00" departLane="free" departSpeed="55.56" fromTaz="taz_8" toTaz="taz_9" arrival="126.00">
        <route edges="31_25 25_26 26_32" exitTimes="25.00 118.00 126.00"/>
    </vehicle>

    <vehicle id="109.0" depart="18.00" departLane="free" departSpeed="55.56" fromTaz="taz_9" toTaz="taz_11" arrival="235.00">
        <route edges="32_26 26_27 27_28 28_34" exitTimes="27.00 145.00 226.00 235.00"/>
    </vehicle>

    <vehicle id="119.0" depart="18.00" departLane="free" departSpeed="55.56" fromTaz="taz_10" toTaz="taz_9" arrival="154.00">
        <route edges="33_27 27_26 26_32" exitTimes="27.00 145.00 154.00"/>
    </vehicle>

    <vehicle id="130.0" depart="18.00" departLane="free" departSpeed="55.55" fromTaz="taz_11" toTaz="taz_9" arrival="237.00">
        <route edges="34_28 28_27 27_26 26_32" exitTimes="27.00 110.00 228.00 237.00"/>
    </vehicle>

    <vehicle id="20.0" depart="18.00" departLane="free" departSpeed="55.57" fromTaz="taz_1" toTaz="taz_10" arrival="366.00">
        <route edges="2_8 8_9 9_15 15_21 21_27 27_33" exitTimes="26.00 48.00 116.00 256.00 358.00 366.00"/>
    </vehicle>

    <vehicle id="31.0" depart="18.00" departLane="free" departSpeed="55.57" fromTaz="taz_2" toTaz="taz_10" arrival="341.00">
        <route edges="3_9 9_15 15_21 21_27 27_33" exitTimes="27.00 95.00 234.00 333.00 341.00"/>
    </vehicle>

    <vehicle id="43.0" depart="18.00" departLane="free" departSpeed="55.57" fromTaz="taz_3" toTaz="taz_11" arrival="336.00">
        <route edges="4_10 10_16 16_22 22_28 28_34" exitTimes="27.00 101.00 205.00 327.00 336.00"/>
    </vehicle>

    <vehicle id="53.0" depart="18.00" departLane="free" departSpeed="55.56" fromTaz="taz_4" toTaz="taz_10" arrival="479.00">
        <route edges="12_13 13_14 14_20 20_26 26_27 27_33" exitTimes="27.00 133.00 217.00 343.00 471.00 479.00"/>
    </vehicle>

    <vehicle id="64.0" depart="18.00" departLane="free" departSpeed="55.57" fromTaz="taz_5" toTaz="taz_10" arrival="308.00">
        <route edges="17_16 16_22 22_21 21_27 27_33" exitTimes="27.00 121.00 198.00 299.00 308.00"/>
    </vehicle>

    <vehicle id="75.0" depart="18.00" departLane="free" departSpeed="55.55" fromTaz="taz_6" toTaz="taz_10" arrival="345.00">
        <route edges="18_19 19_25 25_26 26_27 27_33" exitTimes="27.00 126.00 218.00 336.00 345.00"/>
    </vehicle>
